/*--------------------------------*- C++ -*----------------------------------*\
  =========                 |
  \\      /  F ield         | OpenFOAM: The Open Source CFD Toolbox
   \\    /   O peration     | Website:  https://openfoam.org
    \\  /    A nd           | Version:  10
     \\/     M anipulation  |
\*---------------------------------------------------------------------------*/
FoamFile
{
    format      ascii;
    class       volScalarField;
    location    "0.3";
    object      p;
}
// * * * * * * * * * * * * * * * * * * * * * * * * * * * * * * * * * * * * * //

dimensions      [0 2 -2 0 0 0 0];

internalField   nonuniform List<scalar> 
1200
(
-1.44852e-10
-0.00132392
-0.00195771
-0.00244085
-0.00285358
-0.00321501
-0.00353344
-0.00381179
-0.00405365
-0.00426466
-0.00445337
-0.00462733
-0.0047892
-0.00493908
-0.0050751
-0.00519628
-0.00530091
-0.00538743
-0.00545502
-0.00552057
-0.00031781
-0.001479
-0.0020343
-0.00251132
-0.00293221
-0.00330295
-0.0036299
-0.00391917
-0.00417656
-0.00440495
-0.00460752
-0.00478716
-0.0049472
-0.00509168
-0.00522284
-0.00534069
-0.00544361
-0.00553049
-0.00559916
-0.0056656
-0.0012438
-0.00198924
-0.00236381
-0.00276592
-0.00314949
-0.00349834
-0.00380972
-0.00408638
-0.00433452
-0.00455902
-0.00476319
-0.00494765
-0.00511291
-0.00526043
-0.00539137
-0.00550649
-0.00560679
-0.00569198
-0.00575953
-0.00582583
-0.0024014
-0.0027523
-0.00291482
-0.00320385
-0.00351203
-0.00380644
-0.00408029
-0.00433127
-0.00456147
-0.00477146
-0.00496324
-0.00513847
-0.00529846
-0.00544369
-0.0055734
-0.00568779
-0.00578733
-0.005871
-0.00593719
-0.00600296
-0.00349112
-0.00359867
-0.0035916
-0.0037657
-0.00398457
-0.00420981
-0.00442839
-0.00463786
-0.00483797
-0.00502674
-0.0052036
-0.00536727
-0.00551759
-0.0056546
-0.00577823
-0.00588877
-0.00598535
-0.00606689
-0.00613184
-0.00619709
-0.00438993
-0.00440027
-0.00430343
-0.0043859
-0.00451947
-0.0046738
-0.00483637
-0.00500257
-0.00516733
-0.00532724
-0.00548091
-0.00562677
-0.00576397
-0.00589123
-0.00600767
-0.00611222
-0.00620409
-0.00628252
-0.00634505
-0.00640932
-0.00507703
-0.00508706
-0.00497671
-0.00500562
-0.00507172
-0.00516282
-0.00527278
-0.00539697
-0.00552838
-0.00566141
-0.00579281
-0.00591995
-0.00604124
-0.00615548
-0.0062614
-0.00635793
-0.00644415
-0.00651813
-0.00657745
-0.00664045
-0.00558923
-0.00563704
-0.00556921
-0.00558719
-0.00561694
-0.00566319
-0.00572874
-0.00581401
-0.00591176
-0.00601716
-0.00612636
-0.00623544
-0.00634208
-0.00644412
-0.00653985
-0.00662809
-0.00670705
-0.00677547
-0.00683099
-0.00689187
-0.00599852
-0.00607628
-0.00606313
-0.00610149
-0.00612754
-0.00615238
-0.00619113
-0.00624695
-0.00631678
-0.00639801
-0.00648556
-0.00657576
-0.00666636
-0.00675499
-0.00683992
-0.00691902
-0.00699076
-0.00705426
-0.00710546
-0.00716367
-0.00636923
-0.00645655
-0.00647892
-0.00654548
-0.00658408
-0.00661119
-0.00664313
-0.00668287
-0.00673248
-0.00679279
-0.00686192
-0.006937
-0.00701431
-0.00709082
-0.00716438
-0.00723358
-0.00729795
-0.00735539
-0.00740175
-0.00745725
-0.00672559
-0.00680493
-0.00684632
-0.00693452
-0.00698996
-0.00703001
-0.00706743
-0.00710786
-0.00715225
-0.00720174
-0.00725666
-0.00731633
-0.00737957
-0.0074442
-0.0075078
-0.00756915
-0.00762662
-0.00767839
-0.0077203
-0.0077721
-0.00710312
-0.00716365
-0.00720065
-0.00729202
-0.00736153
-0.00741589
-0.00746439
-0.00751101
-0.00755825
-0.00760857
-0.00766058
-0.00771393
-0.00776791
-0.00782127
-0.00787409
-0.00792626
-0.00797673
-0.00802404
-0.00806089
-0.00810869
-0.00752268
-0.00756649
-0.00758459
-0.00766155
-0.00772751
-0.00779059
-0.00785248
-0.00790805
-0.00796036
-0.0080109
-0.00806123
-0.00811232
-0.00816233
-0.00821053
-0.00825786
-0.00830449
-0.00835017
-0.00839146
-0.00842184
-0.00846658
-0.00797399
-0.00800549
-0.00801386
-0.00806984
-0.00811969
-0.00817848
-0.00824206
-0.00830796
-0.00837155
-0.00842896
-0.00848069
-0.00852691
-0.00856966
-0.00861237
-0.00865636
-0.00870094
-0.00874303
-0.00877839
-0.00880548
-0.00884825
-0.00847566
-0.0085007
-0.00850123
-0.0085342
-0.0085665
-0.00860993
-0.00866378
-0.00872485
-0.00878587
-0.00884538
-0.00890033
-0.00894919
-0.00899392
-0.0090366
-0.00907803
-0.00911765
-0.00915243
-0.00918341
-0.00920917
-0.00924891
-0.00902149
-0.00905178
-0.00905133
-0.00907722
-0.00909165
-0.00911649
-0.00915601
-0.00919937
-0.00924484
-0.00929095
-0.00933615
-0.00938194
-0.0094281
-0.00947291
-0.00951499
-0.00955155
-0.00958248
-0.00961294
-0.00963578
-0.0096709
-0.00955651
-0.00959153
-0.00961145
-0.00965155
-0.00966295
-0.00967596
-0.00969228
-0.00971546
-0.00974842
-0.00978442
-0.00982182
-0.00985918
-0.00989567
-0.00993204
-0.00996733
-0.00999884
-0.0100293
-0.0100602
-0.0100802
-0.0101129
-0.0101068
-0.0101387
-0.0101697
-0.0102147
-0.0102405
-0.0102562
-0.0102614
-0.0102706
-0.0102846
-0.0103057
-0.0103339
-0.0103642
-0.0103952
-0.0104261
-0.0104534
-0.0104781
-0.0105048
-0.0105307
-0.0105466
-0.0105781
-0.0106902
-0.0107183
-0.0107308
-0.0107667
-0.0107991
-0.0108242
-0.0108485
-0.010865
-0.0108711
-0.0108761
-0.010882
-0.0108931
-0.0109122
-0.0109355
-0.0109573
-0.0109797
-0.0110032
-0.0110237
-0.0110365
-0.0110651
-0.011234
-0.0112583
-0.0112646
-0.0112996
-0.0113213
-0.0113512
-0.0113913
-0.0114235
-0.0114501
-0.0114664
-0.0114714
-0.0114738
-0.0114781
-0.0114834
-0.0114913
-0.0115052
-0.0115214
-0.0115373
-0.0115478
-0.0115735
-0.0117767
-0.0117958
-0.0118192
-0.0118508
-0.0118623
-0.0118865
-0.01191
-0.0119373
-0.0119713
-0.0119997
-0.0120236
-0.0120429
-0.0120544
-0.0120578
-0.0120596
-0.0120636
-0.0120686
-0.0120763
-0.0120805
-0.0121014
-0.012471
-0.012488
-0.012506
-0.0125176
-0.0125258
-0.0125323
-0.0125296
-0.0125362
-0.0125428
-0.0125513
-0.0125669
-0.012586
-0.0126025
-0.0126142
-0.0126237
-0.0126296
-0.0126328
-0.0126374
-0.0126365
-0.0126518
-0.0132739
-0.0132902
-0.0132752
-0.0132757
-0.0132773
-0.0132645
-0.0132562
-0.0132483
-0.0132306
-0.0132147
-0.0132027
-0.0131951
-0.0131904
-0.0131899
-0.0131935
-0.0131967
-0.0132005
-0.0132062
-0.0132053
-0.0132189
-0.0139869
-0.0139985
-0.0139836
-0.0139983
-0.013989
-0.0139737
-0.0139708
-0.0139568
-0.0139375
-0.0139174
-0.0138942
-0.0138699
-0.0138451
-0.0138245
-0.0138084
-0.0137957
-0.0137886
-0.0137871
-0.0137822
-0.0137933
-0.0146708
-0.0146743
-0.0146893
-0.0147077
-0.0146858
-0.0146757
-0.0146638
-0.0146392
-0.0146174
-0.0145928
-0.014567
-0.0145393
-0.0145096
-0.0144815
-0.014454
-0.014429
-0.0144094
-0.0143965
-0.0143825
-0.0143868
-0.0155975
-0.015584
-0.0155827
-0.0155498
-0.0154995
-0.0154676
-0.0154189
-0.0153702
-0.0153251
-0.0152774
-0.0152347
-0.0151931
-0.0151541
-0.0151187
-0.015085
-0.0150545
-0.0150287
-0.0150096
-0.0149897
-0.0149879
-0.0168283
-0.0167905
-0.0166873
-0.0165605
-0.0164607
-0.0163666
-0.0162649
-0.0161807
-0.0160953
-0.0160156
-0.0159454
-0.0158785
-0.0158192
-0.0157668
-0.0157206
-0.0156809
-0.015648
-0.0156241
-0.0156009
-0.015595
-0.0180257
-0.0179652
-0.0177388
-0.0175494
-0.0173943
-0.0172307
-0.0170912
-0.0169678
-0.0168446
-0.0167412
-0.016646
-0.0165575
-0.01648
-0.0164112
-0.0163512
-0.0162999
-0.0162574
-0.0162264
-0.0161982
-0.016188
-0.0188353
-0.0187641
-0.0184824
-0.0183109
-0.0181167
-0.0179346
-0.01779
-0.0176414
-0.01751
-0.0173981
-0.0172899
-0.0171936
-0.0171089
-0.0170329
-0.0169666
-0.0169092
-0.0168608
-0.0168249
-0.0167926
-0.0167783
-0.01918
-0.0191145
-0.0188784
-0.0187643
-0.0185719
-0.0184382
-0.0183045
-0.0181656
-0.0180548
-0.0179462
-0.0178436
-0.0177544
-0.0176735
-0.0176004
-0.0175362
-0.0174802
-0.0174323
-0.0173963
-0.0173638
-0.0173469
-0.0192583
-0.0192321
-0.0189929
-0.0190374
-0.0188725
-0.0188036
-0.0186795
-0.0185888
-0.0185031
-0.0184114
-0.018331
-0.0182574
-0.0181878
-0.0181247
-0.0180686
-0.0180191
-0.0179759
-0.0179433
-0.0179137
-0.0178954
-0.0193053
-0.0192977
-0.0192265
-0.0191934
-0.0191079
-0.0190863
-0.0190016
-0.0189618
-0.0188907
-0.0188297
-0.0187747
-0.0187188
-0.0186657
-0.0186168
-0.0185722
-0.0185322
-0.0184963
-0.018469
-0.0184439
-0.0184261
-0.0194687
-0.0194614
-0.0194364
-0.0194266
-0.0193901
-0.0193721
-0.0193307
-0.0193105
-0.0192626
-0.0192326
-0.019194
-0.0191552
-0.0191188
-0.019084
-0.0190514
-0.0190216
-0.018994
-0.0189728
-0.0189531
-0.0189373
-0.0197463
-0.0197461
-0.0197385
-0.01974
-0.0197238
-0.0197188
-0.0196984
-0.0196862
-0.0196617
-0.0196479
-0.0196209
-0.0195978
-0.019575
-0.0195521
-0.01953
-0.0195096
-0.0194899
-0.0194746
-0.0194603
-0.0194475
-0.020107
-0.0201094
-0.0201089
-0.0201134
-0.0201071
-0.0201072
-0.0200974
-0.0200922
-0.0200806
-0.0200715
-0.0200554
-0.0200433
-0.0200295
-0.0200154
-0.0200015
-0.0199884
-0.0199753
-0.019965
-0.0199553
-0.0199459
-0.0205238
-0.0205261
-0.0205273
-0.0205316
-0.0205299
-0.0205321
-0.0205283
-0.0205274
-0.020522
-0.0205182
-0.0205093
-0.0205034
-0.0204958
-0.0204878
-0.0204796
-0.0204717
-0.0204636
-0.0204571
-0.020451
-0.0204446
-0.0209655
-0.0209685
-0.0209711
-0.0209755
-0.0209765
-0.0209793
-0.020979
-0.02098
-0.0209784
-0.0209775
-0.0209741
-0.0209718
-0.0209683
-0.0209644
-0.0209602
-0.020956
-0.0209513
-0.0209476
-0.020944
-0.0209399
-0.0214113
-0.0214123
-0.0214138
-0.0214209
-0.0214195
-0.0214242
-0.0214257
-0.0214282
-0.0214291
-0.0214301
-0.02143
-0.0214297
-0.0214288
-0.0214274
-0.0214256
-0.0214238
-0.0214214
-0.0214193
-0.0214173
-0.0214148
-0.021823
-0.0218302
-0.0218376
-0.0218449
-0.0218491
-0.0218548
-0.021859
-0.0218631
-0.0218661
-0.0218688
-0.0218706
-0.0218719
-0.0218726
-0.0218728
-0.0218724
-0.0218718
-0.0218707
-0.0218695
-0.0218682
-0.0218662
-0.0221826
-0.022193
-0.0222049
-0.0222159
-0.0222256
-0.0222343
-0.0222415
-0.0222479
-0.0222531
-0.0222576
-0.022261
-0.0222638
-0.0222658
-0.0222672
-0.022268
-0.0222683
-0.0222681
-0.0222677
-0.0222669
-0.0222655
-0.00377929
-0.00375428
-0.00375113
-0.00376527
-0.00377974
-0.00379645
-0.00381674
-0.00384066
-0.00386765
-0.0038974
-0.00392983
-0.00396453
-0.00400111
-0.00403883
-0.00407654
-0.00411302
-0.00414698
-0.00417709
-0.00420199
-0.00421986
-0.00375238
-0.00375297
-0.00375684
-0.0037625
-0.00377332
-0.00378884
-0.00380824
-0.00383188
-0.00385999
-0.00389226
-0.00392754
-0.00396486
-0.00400365
-0.00404297
-0.00408196
-0.00411961
-0.00415458
-0.00418558
-0.00421137
-0.00423069
-0.00371637
-0.0037334
-0.00374458
-0.00374851
-0.00375942
-0.00377721
-0.00379863
-0.00382335
-0.00385212
-0.00388547
-0.00392297
-0.00396408
-0.00400695
-0.00404995
-0.00409214
-0.00413228
-0.00416922
-0.00420185
-0.00422908
-0.00425016
-0.00366229
-0.00368694
-0.00370587
-0.00371609
-0.00372958
-0.0037498
-0.00377736
-0.00381039
-0.00384625
-0.00388403
-0.00392452
-0.00396797
-0.00401333
-0.00405995
-0.00410607
-0.00414977
-0.00418983
-0.00422495
-0.00425423
-0.00427739
-0.00360073
-0.00362531
-0.00364722
-0.00366603
-0.00368603
-0.00370904
-0.00373898
-0.00377745
-0.0038227
-0.00387214
-0.00392354
-0.00397459
-0.00402541
-0.00407622
-0.00412561
-0.00417272
-0.00421613
-0.00425415
-0.00428597
-0.00431153
-0.0035516
-0.00356971
-0.00359097
-0.00361628
-0.00364552
-0.00367775
-0.00371256
-0.00375207
-0.0037987
-0.00385297
-0.00391239
-0.00397366
-0.00403507
-0.00409397
-0.00414938
-0.00420131
-0.00424834
-0.00428942
-0.00432388
-0.00435194
-0.00348741
-0.00350022
-0.00352037
-0.0035514
-0.00359096
-0.00363729
-0.00368823
-0.00374076
-0.00379477
-0.00385216
-0.0039133
-0.00397844
-0.00404568
-0.00411146
-0.00417459
-0.00423305
-0.00428501
-0.00433007
-0.00436746
-0.00439812
-0.00339682
-0.00340629
-0.00342563
-0.00345911
-0.00350593
-0.00356349
-0.00363044
-0.00370344
-0.00377866
-0.00385286
-0.00392499
-0.0039967
-0.00406755
-0.00413742
-0.00420564
-0.00426896
-0.0043259
-0.0043754
-0.00441597
-0.00444947
-0.00330969
-0.00331994
-0.00333928
-0.00337576
-0.00342838
-0.00349192
-0.00356477
-0.00364775
-0.00373904
-0.00383249
-0.0039237
-0.00401074
-0.00409251
-0.00417056
-0.00424404
-0.00431152
-0.00437282
-0.00442597
-0.00446938
-0.00450569
-0.00323607
-0.00324505
-0.00326516
-0.00331021
-0.00337608
-0.00345391
-0.00353667
-0.0036233
-0.00371597
-0.00381457
-0.00391673
-0.00401749
-0.00411341
-0.00420326
-0.00428489
-0.00435895
-0.00442525
-0.00448183
-0.00452794
-0.00456679
-0.00312927
-0.00314514
-0.00317446
-0.00322875
-0.00330951
-0.00341034
-0.00352026
-0.00362777
-0.00372947
-0.00382926
-0.00393151
-0.00403557
-0.00413906
-0.00423747
-0.00432764
-0.00440964
-0.00448149
-0.00454214
-0.00459128
-0.00463259
-0.00296301
-0.00299257
-0.00304493
-0.00312153
-0.00321541
-0.00332958
-0.00346158
-0.00360016
-0.0037334
-0.00385592
-0.00396907
-0.00407661
-0.00418146
-0.00428199
-0.00437738
-0.0044651
-0.00454166
-0.00460675
-0.00465897
-0.00470288
-0.00277301
-0.00282047
-0.00290841
-0.00302496
-0.00314489
-0.00326606
-0.00339705
-0.0035424
-0.00369677
-0.00384977
-0.00399162
-0.00411887
-0.0042334
-0.00433889
-0.00443798
-0.00452796
-0.00460769
-0.00467631
-0.00473097
-0.00477757
-0.00257923
-0.00265392
-0.00278776
-0.00295461
-0.00312023
-0.00326934
-0.00340504
-0.00354059
-0.00368586
-0.00384055
-0.00399608
-0.004143
-0.00427619
-0.00439619
-0.00450298
-0.0045969
-0.00468029
-0.00475122
-0.00480766
-0.0048568
-0.00232679
-0.00244865
-0.00263831
-0.00285366
-0.0030693
-0.00327062
-0.00344878
-0.00360496
-0.00374857
-0.00388962
-0.00403337
-0.00417837
-0.00431935
-0.0044502
-0.00456597
-0.00466782
-0.00475651
-0.00483006
-0.00488875
-0.00494035
-0.00198029
-0.00218241
-0.00243879
-0.00269589
-0.00294615
-0.00319091
-0.0034238
-0.00363335
-0.00381423
-0.00397119
-0.00411408
-0.00425152
-0.00438647
-0.00451523
-0.00463404
-0.00474169
-0.00483469
-0.00491172
-0.00497328
-0.00502751
-0.00160386
-0.00192255
-0.00225292
-0.00254982
-0.0028203
-0.00308288
-0.00334111
-0.00358806
-0.00381369
-0.00401237
-0.00418429
-0.00433521
-0.0044718
-0.00459752
-0.00471499
-0.00482286
-0.0049171
-0.00499687
-0.00506066
-0.00511759
-0.00125846
-0.00173688
-0.00214632
-0.00248102
-0.00277415
-0.00304471
-0.00330227
-0.0035515
-0.00379125
-0.00401571
-0.00421777
-0.00439484
-0.00454832
-0.00468261
-0.00480338
-0.00491105
-0.00500549
-0.00508656
-0.00515112
-0.00521043
-0.000912771
-0.00160637
-0.00209644
-0.002478
-0.0028056
-0.00309444
-0.00335339
-0.00359309
-0.00382232
-0.0040431
-0.00425131
-0.00444199
-0.00461124
-0.00475942
-0.00488871
-0.00500031
-0.00509741
-0.00517971
-0.00524449
-0.00530587
-0.000488278
-0.00145829
-0.0020336
-0.00246824
-0.00284006
-0.00316497
-0.0034485
-0.00369753
-0.00392146
-0.00412873
-0.00432431
-0.00450926
-0.00468033
-0.00483484
-0.00497065
-0.00508833
-0.00518987
-0.00527409
-0.00533981
-0.00540337
)
;

boundaryField
{
    movingWall
    {
        type            zeroGradient;
    }
    leftSide
    {
        type            zeroGradient;
    }
    rightSide
    {
        type            zeroGradient;
    }
    bottomWall
    {
        type            zeroGradient;
    }
    bottomWall2
    {
        type            zeroGradient;
    }
    frontAndBack
    {
        type            empty;
    }
}


// ************************************************************************* //
