/*--------------------------------*- C++ -*----------------------------------*\
  =========                 |
  \\      /  F ield         | OpenFOAM: The Open Source CFD Toolbox
   \\    /   O peration     | Website:  https://openfoam.org
    \\  /    A nd           | Version:  10
     \\/     M anipulation  |
\*---------------------------------------------------------------------------*/
FoamFile
{
    format      ascii;
    class       surfaceScalarField;
    location    "0.3";
    object      phi;
}
// * * * * * * * * * * * * * * * * * * * * * * * * * * * * * * * * * * * * * //

dimensions      [0 3 -1 0 0 0 0];

internalField   nonuniform List<scalar> 
2320
(
1.63486e-07
3.42413e-05
-3.44048e-05
1.42683e-07
3.5791e-05
-3.57702e-05
1.34722e-07
3.71358e-05
-3.71279e-05
1.29119e-07
3.85332e-05
-3.85276e-05
1.23899e-07
3.99814e-05
-3.99761e-05
1.18225e-07
4.14818e-05
-4.14761e-05
1.12158e-07
4.30364e-05
-4.30303e-05
1.06027e-07
4.46468e-05
-4.46407e-05
9.99733e-08
4.63159e-05
-4.63099e-05
9.39676e-08
4.80461e-05
-4.80401e-05
8.7679e-08
4.98399e-05
-4.98336e-05
8.09008e-08
5.16996e-05
-5.16929e-05
7.35659e-08
5.36276e-05
-5.36203e-05
6.5786e-08
5.56264e-05
-5.56187e-05
5.77056e-08
5.76987e-05
-5.76906e-05
4.93493e-08
5.98473e-05
-5.9839e-05
4.07711e-08
6.20751e-05
-6.20666e-05
3.19168e-08
6.43851e-05
-6.43762e-05
2.25292e-08
6.67804e-05
-6.6771e-05
6.92646e-05
-6.92551e-05
2.24318e-07
3.4017e-05
1.92945e-07
3.58224e-05
1.71532e-07
3.71572e-05
1.58488e-07
3.85462e-05
1.48558e-07
3.99913e-05
1.39649e-07
4.14907e-05
1.31269e-07
4.30447e-05
1.22905e-07
4.46552e-05
1.14408e-07
4.63244e-05
1.0595e-07
4.80546e-05
9.766e-08
4.98482e-05
8.9557e-08
5.17077e-05
8.14071e-08
5.36358e-05
7.29899e-08
5.56349e-05
6.41638e-08
5.77075e-05
5.49402e-08
5.98565e-05
4.53667e-08
6.20847e-05
3.53982e-08
6.43951e-05
2.52588e-08
6.67905e-05
6.92753e-05
2.6652e-07
3.37504e-05
2.40246e-07
3.58487e-05
2.15121e-07
3.71824e-05
1.93799e-07
3.85676e-05
1.76467e-07
4.00086e-05
1.62888e-07
4.15043e-05
1.51251e-07
4.30564e-05
1.4073e-07
4.46657e-05
1.30778e-07
4.63344e-05
1.20938e-07
4.80644e-05
1.10973e-07
4.98581e-05
1.00939e-07
5.17178e-05
9.09265e-08
5.36458e-05
8.09565e-08
5.56448e-05
7.09293e-08
5.77176e-05
6.07086e-08
5.98668e-05
5.01619e-08
6.20953e-05
3.92832e-08
6.44059e-05
2.80659e-08
6.68017e-05
6.9287e-05
2.89528e-07
3.34609e-05
2.76056e-07
3.58622e-05
2.50276e-07
3.72081e-05
2.26185e-07
3.85917e-05
2.06044e-07
4.00288e-05
1.8835e-07
4.1522e-05
1.73237e-07
4.30715e-05
1.59623e-07
4.46793e-05
1.46997e-07
4.6347e-05
1.3515e-07
4.80762e-05
1.23833e-07
4.98695e-05
1.12751e-07
5.17289e-05
1.01618e-07
5.36569e-05
9.03214e-08
5.56561e-05
7.88639e-08
5.7729e-05
6.72423e-08
5.98784e-05
5.54343e-08
6.21071e-05
4.34005e-08
6.4418e-05
3.10187e-08
6.68141e-05
6.92999e-05
2.97783e-07
3.31631e-05
2.96072e-07
3.58639e-05
2.75312e-07
3.72289e-05
2.52954e-07
3.8614e-05
2.31953e-07
4.00498e-05
2.13046e-07
4.15409e-05
1.95881e-07
4.30887e-05
1.80121e-07
4.46951e-05
1.65465e-07
4.63617e-05
1.51451e-07
4.80903e-05
1.37942e-07
4.9883e-05
1.24876e-07
5.17419e-05
1.12121e-07
5.36697e-05
9.95453e-08
5.56687e-05
8.69555e-08
5.77416e-05
7.42025e-08
5.98911e-05
6.12155e-08
6.21201e-05
4.79274e-08
6.44313e-05
3.42825e-08
6.68278e-05
6.9314e-05
3.03114e-07
3.286e-05
3.07685e-07
3.58593e-05
2.92743e-07
3.72438e-05
2.7438e-07
3.86324e-05
2.5449e-07
4.00696e-05
2.34853e-07
4.15605e-05
2.16283e-07
4.31072e-05
1.98974e-07
4.47124e-05
1.82857e-07
4.63778e-05
1.67614e-07
4.81055e-05
1.52893e-07
4.98977e-05
1.38415e-07
5.17564e-05
1.24082e-07
5.3684e-05
1.09859e-07
5.56829e-05
9.56793e-08
5.77558e-05
8.14842e-08
5.99053e-05
6.71758e-08
6.21344e-05
5.26275e-08
6.44458e-05
3.77217e-08
6.68427e-05
6.93293e-05
3.10461e-07
3.25496e-05
3.15797e-07
3.5854e-05
3.04321e-07
3.72553e-05
2.90017e-07
3.86467e-05
2.72663e-07
4.0087e-05
2.5419e-07
4.1579e-05
2.35737e-07
4.31257e-05
2.17643e-07
4.47305e-05
2.00099e-07
4.63953e-05
1.83124e-07
4.81225e-05
1.66797e-07
4.9914e-05
1.51014e-07
5.17722e-05
1.35569e-07
5.36995e-05
1.20231e-07
5.56983e-05
1.04858e-07
5.77712e-05
8.93652e-08
5.99208e-05
7.36817e-08
6.21501e-05
5.77202e-08
6.44618e-05
4.14153e-08
6.6859e-05
6.93461e-05
3.19269e-07
3.22303e-05
3.23658e-07
3.58496e-05
3.11682e-07
3.72673e-05
2.98554e-07
3.86598e-05
2.84294e-07
4.01013e-05
2.68774e-07
4.15945e-05
2.51743e-07
4.31427e-05
2.34111e-07
4.47481e-05
2.16558e-07
4.64129e-05
1.99148e-07
4.81399e-05
1.81872e-07
4.99313e-05
1.64671e-07
5.17894e-05
1.47596e-07
5.37165e-05
1.30697e-07
5.57152e-05
1.13927e-07
5.77879e-05
9.71474e-08
5.99376e-05
8.01973e-08
6.2167e-05
6.29385e-08
6.4479e-05
4.53129e-08
6.68766e-05
6.93642e-05
3.3279e-07
3.18975e-05
3.38997e-07
3.58434e-05
3.24074e-07
3.72822e-05
3.0995e-07
3.86739e-05
2.96067e-07
4.01151e-05
2.81409e-07
4.16092e-05
2.65635e-07
4.31585e-05
2.48747e-07
4.4765e-05
2.31023e-07
4.64306e-05
2.13096e-07
4.81578e-05
1.9524e-07
4.99491e-05
1.77467e-07
5.18072e-05
1.59692e-07
5.37343e-05
1.41803e-07
5.57331e-05
1.23735e-07
5.7806e-05
1.05498e-07
5.99558e-05
8.70582e-08
6.21854e-05
6.83604e-08
6.44977e-05
4.93291e-08
6.68956e-05
6.93837e-05
3.45466e-07
3.1552e-05
3.56181e-07
3.58327e-05
3.3983e-07
3.72986e-05
3.23918e-07
3.86898e-05
3.08874e-07
4.01302e-05
2.93771e-07
4.16243e-05
2.78329e-07
4.31739e-05
2.62347e-07
4.4781e-05
2.45374e-07
4.64476e-05
2.27399e-07
4.81758e-05
2.08764e-07
4.99678e-05
1.89848e-07
5.18261e-05
1.70896e-07
5.37533e-05
1.51933e-07
5.5752e-05
1.32898e-07
5.7825e-05
1.13649e-07
5.99751e-05
9.40491e-08
6.2205e-05
7.40341e-08
6.45178e-05
5.35648e-08
6.69161e-05
6.94046e-05
3.58474e-07
3.11936e-05
3.74425e-07
3.58167e-05
3.577e-07
3.73153e-05
3.40274e-07
3.87073e-05
3.23433e-07
4.0147e-05
3.07203e-07
4.16405e-05
2.90838e-07
4.31903e-05
2.7415e-07
4.47977e-05
2.57171e-07
4.64646e-05
2.39679e-07
4.81933e-05
2.21517e-07
4.99859e-05
2.02581e-07
5.1845e-05
1.82957e-07
5.37729e-05
1.62874e-07
5.57721e-05
1.42509e-07
5.78454e-05
1.21861e-07
5.99957e-05
1.00914e-07
6.2226e-05
7.95804e-08
6.45391e-05
5.7821e-08
6.69379e-05
6.94269e-05
3.75206e-07
3.08184e-05
3.98327e-07
3.57936e-05
3.82174e-07
3.73314e-05
3.62774e-07
3.87267e-05
3.43604e-07
4.01662e-05
3.25237e-07
4.16589e-05
3.07243e-07
4.32083e-05
2.89269e-07
4.48156e-05
2.70784e-07
4.6483e-05
2.51906e-07
4.82122e-05
2.32669e-07
5.00052e-05
2.13159e-07
5.18645e-05
1.93322e-07
5.37927e-05
1.72995e-07
5.57924e-05
1.52e-07
5.78664e-05
1.3036e-07
6.00174e-05
1.08157e-07
6.22482e-05
8.54484e-08
6.45618e-05
6.22676e-08
6.6961e-05
6.94508e-05
3.87464e-07
3.04309e-05
4.17252e-07
3.57638e-05
4.0352e-07
3.73452e-05
3.85017e-07
3.87452e-05
3.65364e-07
4.01859e-05
3.44858e-07
4.16794e-05
3.24885e-07
4.32283e-05
3.05382e-07
4.48352e-05
2.8609e-07
4.65023e-05
2.66628e-07
4.82316e-05
2.4656e-07
5.00252e-05
2.2583e-07
5.18853e-05
2.04551e-07
5.3814e-05
1.828e-07
5.58142e-05
1.60639e-07
5.78886e-05
1.3806e-07
6.004e-05
1.14917e-07
6.22713e-05
9.11893e-08
6.45855e-05
6.67381e-08
6.69855e-05
6.9476e-05
4.00956e-07
3.00299e-05
4.35501e-07
3.57293e-05
4.22348e-07
3.73583e-05
4.05196e-07
3.87623e-05
3.86057e-07
4.0205e-05
3.65574e-07
4.16999e-05
3.44163e-07
4.32497e-05
3.22457e-07
4.48569e-05
3.01188e-07
4.65236e-05
2.80222e-07
4.82526e-05
2.59402e-07
5.00461e-05
2.38264e-07
5.19064e-05
2.16436e-07
5.38358e-05
1.93801e-07
5.58368e-05
1.70477e-07
5.79119e-05
1.46498e-07
6.00639e-05
1.21979e-07
6.22959e-05
9.69101e-08
6.46106e-05
7.11249e-08
6.70113e-05
6.95025e-05
4.18471e-07
2.96115e-05
4.58826e-07
3.56889e-05
4.44954e-07
3.73722e-05
4.2669e-07
3.87806e-05
4.07194e-07
4.02245e-05
3.86983e-07
4.17201e-05
3.65683e-07
4.3271e-05
3.43682e-07
4.48789e-05
3.20812e-07
4.65465e-05
2.97397e-07
4.8276e-05
2.73827e-07
5.00696e-05
2.50376e-07
5.19298e-05
2.27034e-07
5.38592e-05
2.03574e-07
5.58603e-05
1.79588e-07
5.79359e-05
1.54842e-07
6.00887e-05
1.29406e-07
6.23213e-05
1.03095e-07
6.46369e-05
7.59504e-08
6.70384e-05
6.95303e-05
4.30516e-07
2.91809e-05
4.76516e-07
3.56429e-05
4.62854e-07
3.73859e-05
4.44266e-07
3.87992e-05
4.25357e-07
4.02434e-05
4.05022e-07
4.17404e-05
3.8383e-07
4.32922e-05
3.61734e-07
4.4901e-05
3.38776e-07
4.65694e-05
3.1523e-07
4.82996e-05
2.90966e-07
5.00939e-05
2.66117e-07
5.19547e-05
2.4079e-07
5.38845e-05
2.15106e-07
5.5886e-05
1.89083e-07
5.79619e-05
1.62858e-07
6.01149e-05
1.36198e-07
6.23479e-05
1.08733e-07
6.46644e-05
8.04897e-08
6.70667e-05
6.95594e-05
4.42126e-07
2.87388e-05
4.93095e-07
3.55919e-05
4.78922e-07
3.74e-05
4.60324e-07
3.88178e-05
4.41326e-07
4.02624e-05
4.21412e-07
4.17603e-05
4.003e-07
4.33133e-05
3.77393e-07
4.49239e-05
3.53629e-07
4.65932e-05
3.29295e-07
4.83239e-05
3.04666e-07
5.01185e-05
2.7965e-07
5.19797e-05
2.53996e-07
5.39102e-05
2.27472e-07
5.59125e-05
2.0024e-07
5.79891e-05
1.72499e-07
6.01427e-05
1.44029e-07
6.23764e-05
1.14917e-07
6.46935e-05
8.52065e-08
6.70964e-05
6.959e-05
4.64281e-07
2.82745e-05
5.23202e-07
3.5533e-05
5.07079e-07
3.74162e-05
4.8463e-07
3.88402e-05
4.61566e-07
4.02855e-05
4.39555e-07
4.17823e-05
4.17355e-07
4.33355e-05
3.94707e-07
4.49465e-05
3.70989e-07
4.66169e-05
3.45722e-07
4.83492e-05
3.19402e-07
5.01449e-05
2.92394e-07
5.20067e-05
2.65016e-07
5.39375e-05
2.37355e-07
5.59401e-05
2.09469e-07
5.8017e-05
1.80942e-07
6.01712e-05
1.51486e-07
6.24059e-05
1.21292e-07
6.47237e-05
9.02259e-08
6.71274e-05
6.96219e-05
4.79508e-07
2.7795e-05
5.47848e-07
3.54647e-05
5.33215e-07
3.74308e-05
5.08446e-07
3.8865e-05
4.83019e-07
4.03109e-05
4.57603e-07
4.18078e-05
4.32457e-07
4.33606e-05
4.0842e-07
4.49705e-05
3.84278e-07
4.66411e-05
3.59689e-07
4.83737e-05
3.33951e-07
5.01706e-05
3.06757e-07
5.20339e-05
2.78242e-07
5.3966e-05
2.48943e-07
5.59694e-05
2.19208e-07
5.80468e-05
1.88904e-07
6.02015e-05
1.58159e-07
6.24366e-05
1.26915e-07
6.47549e-05
9.48304e-08
6.71595e-05
6.96549e-05
4.8581e-07
2.73092e-05
5.60629e-07
3.53899e-05
5.48651e-07
3.74428e-05
5.26209e-07
3.88874e-05
5.02457e-07
4.03346e-05
4.76336e-07
4.18339e-05
4.49632e-07
4.33873e-05
4.22237e-07
4.49979e-05
3.94872e-07
4.66684e-05
3.68191e-07
4.84004e-05
3.41727e-07
5.01971e-05
3.14966e-07
5.20607e-05
2.87304e-07
5.39937e-05
2.58592e-07
5.59982e-05
2.28567e-07
5.80768e-05
1.97386e-07
6.02327e-05
1.65486e-07
6.24685e-05
1.3283e-07
6.47876e-05
9.94335e-08
6.71929e-05
6.96891e-05
5.04628e-07
2.68046e-05
5.86557e-07
3.53079e-05
5.72922e-07
3.74564e-05
5.50223e-07
3.89101e-05
5.25368e-07
4.03595e-05
4.99482e-07
4.18598e-05
4.7263e-07
4.34142e-05
4.43727e-07
4.50268e-05
4.14048e-07
4.66981e-05
3.83725e-07
4.84307e-05
3.53396e-07
5.02274e-05
3.23366e-07
5.20907e-05
2.93717e-07
5.40234e-05
2.64172e-07
5.60277e-05
2.34014e-07
5.81069e-05
2.03095e-07
6.02636e-05
1.7124e-07
6.25004e-05
1.38197e-07
6.48206e-05
1.04076e-07
6.7227e-05
6.97242e-05
5.31867e-07
2.62727e-05
6.25156e-07
3.52146e-05
6.09003e-07
3.74726e-05
5.80316e-07
3.89388e-05
5.50167e-07
4.03896e-05
5.21607e-07
4.18883e-05
4.92465e-07
4.34433e-05
4.63181e-07
4.50561e-05
4.33414e-07
4.67279e-05
4.02494e-07
4.84617e-05
3.70691e-07
5.02592e-05
3.38144e-07
5.21232e-05
3.05516e-07
5.4056e-05
2.72902e-07
5.60603e-05
2.40343e-07
5.81395e-05
2.07881e-07
6.0296e-05
1.75098e-07
6.25332e-05
1.41634e-07
6.48541e-05
1.07303e-07
6.72614e-05
6.97596e-05
5.3462e-07
2.57381e-05
6.37176e-07
3.51121e-05
6.25274e-07
3.74845e-05
5.95018e-07
3.89691e-05
5.64177e-07
4.04205e-05
5.33504e-07
4.1919e-05
5.02306e-07
4.34745e-05
4.72062e-07
4.50864e-05
4.41676e-07
4.67583e-05
4.11231e-07
4.84921e-05
3.80279e-07
5.02901e-05
3.48584e-07
5.21549e-05
3.16186e-07
5.40884e-05
2.82896e-07
5.60936e-05
2.49112e-07
5.81733e-05
2.15047e-07
6.03301e-05
1.80675e-07
6.25675e-05
1.45993e-07
6.48888e-05
1.10855e-07
6.72965e-05
6.97954e-05
5.257e-07
2.52124e-05
6.30893e-07
3.50069e-05
6.2201e-07
3.74933e-05
5.95247e-07
3.89958e-05
5.67361e-07
4.04484e-05
5.36896e-07
4.19495e-05
5.06052e-07
4.35054e-05
4.74925e-07
4.51175e-05
4.43264e-07
4.67899e-05
4.11879e-07
4.85235e-05
3.80401e-07
5.03216e-05
3.49038e-07
5.21863e-05
3.1741e-07
5.412e-05
2.85205e-07
5.61258e-05
2.52445e-07
5.8206e-05
2.18949e-07
6.03636e-05
1.84733e-07
6.26017e-05
1.49831e-07
6.49237e-05
1.14231e-07
6.73321e-05
6.98316e-05
5.47949e-07
2.46645e-05
6.57629e-07
3.48972e-05
6.42297e-07
3.75087e-05
6.12159e-07
3.9026e-05
5.80009e-07
4.04805e-05
5.46348e-07
4.19831e-05
5.13567e-07
4.35381e-05
4.79939e-07
4.51511e-05
4.46451e-07
4.68234e-05
4.13139e-07
4.85568e-05
3.79884e-07
5.03549e-05
3.47102e-07
5.22191e-05
3.14508e-07
5.41526e-05
2.82123e-07
5.61582e-05
2.49773e-07
5.82384e-05
2.1712e-07
6.03963e-05
1.84007e-07
6.26349e-05
1.50216e-07
6.49575e-05
1.1556e-07
6.73668e-05
6.9867e-05
5.85444e-07
2.4079e-05
7.05842e-07
3.47768e-05
6.808e-07
3.75337e-05
6.38245e-07
3.90685e-05
5.94353e-07
4.05244e-05
5.53595e-07
4.20239e-05
5.15188e-07
4.35766e-05
4.77738e-07
4.51886e-05
4.42376e-07
4.68588e-05
4.07704e-07
4.85915e-05
3.7386e-07
5.03887e-05
3.40716e-07
5.22522e-05
3.0794e-07
5.41854e-05
2.75601e-07
5.61905e-05
2.43489e-07
5.82705e-05
2.11442e-07
6.04283e-05
1.79339e-07
6.2667e-05
1.46921e-07
6.49899e-05
1.13936e-07
6.73998e-05
6.99005e-05
5.7008e-07
2.35089e-05
6.93374e-07
3.46535e-05
6.67661e-07
3.75594e-05
6.1944e-07
3.91168e-05
5.71148e-07
4.05727e-05
5.28804e-07
4.20662e-05
4.88239e-07
4.36171e-05
4.51019e-07
4.52258e-05
4.16314e-07
4.68935e-05
3.82891e-07
4.86249e-05
3.51173e-07
5.04204e-05
3.20375e-07
5.2283e-05
2.90168e-07
5.42156e-05
2.60371e-07
5.62203e-05
2.30677e-07
5.83002e-05
2.00966e-07
6.0458e-05
1.7114e-07
6.26968e-05
1.41053e-07
6.502e-05
1.10505e-07
6.74303e-05
6.99314e-05
4.59506e-07
2.30494e-05
5.55989e-07
3.4557e-05
5.41922e-07
3.75735e-05
5.06934e-07
3.91517e-05
4.73897e-07
4.06057e-05
4.43123e-07
4.2097e-05
4.12754e-07
4.36475e-05
3.85362e-07
4.52532e-05
3.58181e-07
4.69207e-05
3.31997e-07
4.86511e-05
3.06793e-07
5.04456e-05
2.81823e-07
5.2308e-05
2.57098e-07
5.42403e-05
2.32395e-07
5.6245e-05
2.07493e-07
5.83251e-05
1.82269e-07
6.04832e-05
1.56629e-07
6.27224e-05
1.30473e-07
6.50461e-05
1.03675e-07
6.74571e-05
6.99586e-05
2.98882e-07
2.27505e-05
3.42285e-07
3.45136e-05
3.42339e-07
3.75734e-05
3.31586e-07
3.91625e-05
3.24011e-07
4.06133e-05
3.11793e-07
4.21092e-05
3.00379e-07
4.36589e-05
2.87972e-07
4.52656e-05
2.73922e-07
4.69347e-05
2.59787e-07
4.86652e-05
2.44674e-07
5.04608e-05
2.28591e-07
5.23241e-05
2.11777e-07
5.42571e-05
1.94141e-07
5.62627e-05
1.75692e-07
5.83435e-05
1.5642e-07
6.05025e-05
1.36342e-07
6.27425e-05
1.15491e-07
6.5067e-05
9.37583e-08
6.74788e-05
6.99807e-05
1.45143e-07
2.26054e-05
1.30683e-07
3.45281e-05
1.39034e-07
3.75651e-05
1.53722e-07
3.91478e-05
1.67668e-07
4.05994e-05
1.75327e-07
4.21016e-05
1.82231e-07
4.3652e-05
1.84125e-07
4.52637e-05
1.84067e-07
4.69348e-05
1.81837e-07
4.86675e-05
1.76993e-07
5.04656e-05
1.70243e-07
5.23308e-05
1.6175e-07
5.42656e-05
1.51597e-07
5.62728e-05
1.39973e-07
5.83552e-05
1.26991e-07
6.05155e-05
1.12807e-07
6.27567e-05
9.75978e-08
6.50822e-05
8.13342e-08
6.74951e-05
6.99975e-05
4.7706e-08
2.25577e-05
-7.94044e-09
3.45837e-05
-1.09447e-09
3.75583e-05
2.66391e-08
3.91201e-05
4.81991e-08
4.05778e-05
6.76913e-08
4.20821e-05
8.34271e-08
4.36363e-05
9.51089e-08
4.5252e-05
1.04708e-07
4.69252e-05
1.10698e-07
4.86615e-05
1.13943e-07
5.04624e-05
1.14881e-07
5.23299e-05
1.13506e-07
5.4267e-05
1.10029e-07
5.62763e-05
1.04673e-07
5.83605e-05
9.76002e-08
6.05226e-05
8.90078e-08
6.27653e-05
7.91906e-08
6.5092e-05
6.81551e-08
6.75061e-05
7.00092e-05
-7.4346e-10
2.25584e-05
-7.28439e-08
3.46558e-05
-6.58205e-08
3.75512e-05
-3.94659e-08
3.90937e-05
-1.64519e-08
4.05548e-05
5.5082e-09
4.20601e-05
2.25963e-08
4.36192e-05
3.77778e-08
4.52368e-05
5.00435e-08
4.69129e-05
5.93276e-08
4.86522e-05
6.65428e-08
5.04551e-05
7.14618e-08
5.2325e-05
7.42e-08
5.42643e-05
7.49612e-08
5.62755e-05
7.39039e-08
5.83616e-05
7.1172e-08
6.05253e-05
6.69164e-08
6.27695e-05
6.14129e-08
6.50975e-05
5.47168e-08
6.75128e-05
7.00167e-05
-1.44271e-08
2.25729e-05
-8.25408e-08
3.47239e-05
-8.03217e-08
3.7549e-05
-6.14178e-08
3.90748e-05
-4.39423e-08
4.05373e-05
-2.62645e-08
4.20424e-05
-1.08904e-08
4.36038e-05
3.22425e-09
4.52227e-05
1.48727e-08
4.69012e-05
2.50788e-08
4.8642e-05
3.35174e-08
5.04467e-05
4.00992e-08
5.23184e-05
4.49378e-08
5.42594e-05
4.81131e-08
5.62724e-05
4.97095e-08
5.836e-05
4.98365e-08
6.05252e-05
4.8584e-08
6.27708e-05
4.62037e-08
6.50999e-05
4.27557e-08
6.75163e-05
7.00211e-05
-1.27996e-08
2.25857e-05
-6.39096e-08
3.47751e-05
-6.29952e-08
3.75481e-05
-5.15225e-08
3.90633e-05
-3.97649e-08
4.05256e-05
-2.80745e-08
4.20307e-05
-1.79406e-08
4.35937e-05
-8.07128e-09
4.52129e-05
7.31779e-10
4.68924e-05
8.82369e-09
4.86339e-05
1.57339e-08
5.04398e-05
2.15352e-08
5.23126e-05
2.62466e-08
5.42547e-05
2.98412e-08
5.62688e-05
3.23254e-08
5.83575e-05
3.37421e-08
6.05238e-05
3.41064e-08
6.27704e-05
3.35561e-08
6.51004e-05
3.21869e-08
6.75176e-05
7.00233e-05
-9.59319e-09
2.25953e-05
-4.4349e-08
3.48098e-05
-4.52898e-08
3.7549e-05
-3.98778e-08
3.90579e-05
-3.28172e-08
4.05185e-05
-2.5794e-08
4.20237e-05
-1.86302e-08
4.35865e-05
-1.16322e-08
4.52059e-05
-5.08158e-09
4.68859e-05
9.75426e-10
4.86278e-05
6.39171e-09
5.04344e-05
1.11905e-08
5.23078e-05
1.52874e-08
5.42506e-05
1.86372e-08
5.62654e-05
2.12218e-08
5.83549e-05
2.30527e-08
6.05219e-05
2.41126e-08
6.27694e-05
2.44814e-08
6.51001e-05
2.42325e-08
6.75179e-05
7.00244e-05
-4.02704e-09
2.25993e-05
-2.27178e-08
3.48285e-05
-2.29202e-08
3.75492e-05
-2.05129e-08
3.90555e-05
-1.70998e-08
4.05151e-05
-1.38418e-08
4.20205e-05
-1.03139e-08
4.3583e-05
-6.76176e-09
4.52023e-05
-3.2142e-09
4.68823e-05
3.13528e-10
4.86243e-05
3.66851e-09
5.0431e-05
6.80305e-09
5.23047e-05
9.62596e-09
5.42478e-05
1.20732e-08
5.6263e-05
1.4093e-08
5.83529e-05
1.56655e-08
6.05204e-05
1.67557e-08
6.27683e-05
1.73572e-08
6.50995e-05
1.75778e-08
6.75177e-05
7.00249e-05
-2.24174e-09
2.26015e-05
-1.29392e-08
3.48392e-05
-1.36772e-08
3.755e-05
-1.29138e-08
3.90548e-05
-1.08417e-08
4.0513e-05
-8.81638e-09
4.20184e-05
-6.35776e-09
4.35805e-05
-3.97063e-09
4.51999e-05
-1.51935e-09
4.68799e-05
8.65995e-10
4.86219e-05
3.15483e-09
5.04287e-05
5.299e-09
5.23025e-05
7.25913e-09
5.42458e-05
8.99982e-09
5.62612e-05
1.04826e-08
5.83514e-05
1.16831e-08
6.05192e-05
1.25703e-08
6.27674e-05
1.31276e-08
6.50989e-05
1.34292e-08
6.75174e-05
7.00252e-05
1.9706e-09
2.25996e-05
-7.54861e-10
3.48419e-05
-2.4464e-10
3.75495e-05
1.26921e-10
3.90544e-05
7.36593e-10
4.05124e-05
1.1251e-09
4.20181e-05
1.78003e-09
4.35799e-05
2.42991e-09
4.51993e-05
3.2775e-09
4.6879e-05
4.13443e-09
4.86211e-05
5.056e-09
5.04278e-05
5.96837e-09
5.23016e-05
6.83368e-09
5.4245e-05
7.61798e-09
5.62604e-05
8.29014e-09
5.83507e-05
8.82843e-09
6.05186e-05
9.21297e-09
6.2767e-05
9.39808e-09
6.50987e-05
9.51977e-09
6.75172e-05
7.00255e-05
-1.06781e-10
2.25997e-05
-1.49283e-09
3.48433e-05
-8.03421e-10
3.75488e-05
-1.44421e-11
3.90536e-05
1.04182e-09
4.05114e-05
1.88918e-09
4.20172e-05
2.78168e-09
4.3579e-05
3.52596e-09
4.51985e-05
4.25964e-09
4.68783e-05
4.91673e-09
4.86204e-05
5.54202e-09
5.04272e-05
6.1181e-09
5.2301e-05
6.63844e-09
5.42444e-05
7.08963e-09
5.626e-05
7.45339e-09
5.83504e-05
7.71178e-09
6.05184e-05
7.8569e-09
6.27669e-05
7.82395e-09
6.50987e-05
7.647e-09
6.75174e-05
7.00258e-05
1.69254e-08
1.91814e-08
1.7952e-08
1.63642e-08
1.49873e-08
1.36848e-08
1.2568e-08
1.15409e-08
1.06484e-08
9.84011e-09
9.11984e-09
8.46748e-09
7.87007e-09
7.31347e-09
6.78259e-09
6.26022e-09
5.7383e-09
5.17899e-09
4.63116e-09
2.86892e-09
3.45858e-05
2.79894e-09
3.58701e-05
1.64448e-09
3.72039e-05
1.1888e-09
3.85855e-05
1.07808e-09
4.00188e-05
1.05545e-09
4.15056e-05
1.1152e-09
4.30477e-05
1.27368e-09
4.4647e-05
1.47667e-09
4.63058e-05
1.65002e-09
4.80264e-05
1.75157e-09
4.98109e-05
1.77497e-09
5.16617e-05
1.72455e-09
5.35812e-05
1.62994e-09
5.55721e-05
1.50331e-09
5.76369e-05
1.34175e-09
5.97784e-05
1.14642e-09
6.19995e-05
9.15968e-10
6.43032e-05
6.37679e-10
6.66924e-05
6.91705e-05
-7.09742e-09
3.45864e-05
-3.43459e-09
3.58664e-05
9.72006e-10
3.71995e-05
2.42003e-09
3.85841e-05
2.96428e-09
4.00183e-05
3.4638e-09
4.15051e-05
3.8531e-09
4.30473e-05
4.10124e-09
4.46468e-05
4.26286e-09
4.63057e-05
4.43731e-09
4.80262e-05
4.63629e-09
4.98107e-05
4.77886e-09
5.16615e-05
4.80674e-09
5.35812e-05
4.67834e-09
5.55722e-05
4.3731e-09
5.76372e-05
3.91964e-09
5.97789e-05
3.34188e-09
6.20001e-05
2.65255e-09
6.43038e-05
1.80337e-09
6.66932e-05
6.91715e-05
4.46189e-09
3.45852e-05
3.44626e-09
3.58675e-05
2.53094e-09
3.72005e-05
3.60429e-09
3.8583e-05
4.59862e-09
4.00173e-05
5.35474e-09
4.15044e-05
6.22636e-09
4.30464e-05
7.02562e-09
4.4646e-05
7.62277e-09
4.63051e-05
7.96563e-09
4.80258e-05
8.06563e-09
4.98106e-05
7.98763e-09
5.16616e-05
7.79947e-09
5.35814e-05
7.46065e-09
5.55726e-05
6.94645e-09
5.76377e-05
6.24023e-09
5.97796e-05
5.32466e-09
6.2001e-05
4.21241e-09
6.4305e-05
2.88907e-09
6.66946e-05
6.91729e-05
-3.13071e-09
3.4584e-05
-9.8405e-10
3.58653e-05
2.06019e-09
3.71974e-05
4.02599e-09
3.8581e-05
5.69917e-09
4.00156e-05
6.97802e-09
4.15031e-05
7.95196e-09
4.30454e-05
8.82906e-09
4.46451e-05
9.76622e-09
4.63041e-05
1.0555e-08
4.80251e-05
1.10453e-08
4.98101e-05
1.11778e-08
5.16615e-05
1.09355e-08
5.35816e-05
1.03607e-08
5.55731e-05
9.54347e-09
5.76385e-05
8.4867e-09
5.97807e-05
7.18937e-09
6.20023e-05
5.64252e-09
6.43065e-05
3.91793e-09
6.66963e-05
6.91749e-05
7.7642e-09
3.45815e-05
6.7205e-09
3.58664e-05
4.95026e-09
3.71992e-05
5.95415e-09
3.858e-05
7.86853e-09
4.00137e-05
9.7828e-09
4.15012e-05
1.11726e-08
4.3044e-05
1.21882e-08
4.46441e-05
1.2823e-08
4.63035e-05
1.32932e-08
4.80246e-05
1.36151e-08
4.98098e-05
1.37687e-08
5.16613e-05
1.35837e-08
5.35818e-05
1.3018e-08
5.55737e-05
1.20561e-08
5.76395e-05
1.07065e-08
5.9782e-05
9.03958e-09
6.2004e-05
7.10143e-09
6.43084e-05
4.94046e-09
6.66984e-05
6.91773e-05
1.49939e-10
3.45799e-05
3.22704e-09
3.58633e-05
6.09403e-09
3.71963e-05
7.57674e-09
3.85785e-05
9.47067e-09
4.00118e-05
1.16598e-08
4.1499e-05
1.38168e-08
4.30419e-05
1.5559e-08
4.46423e-05
1.67098e-08
4.63024e-05
1.7228e-08
4.80241e-05
1.72674e-08
4.98097e-05
1.69519e-08
5.16616e-05
1.63498e-08
5.35824e-05
1.55059e-08
5.55745e-05
1.43064e-08
5.76407e-05
1.27258e-08
5.97836e-05
1.07842e-08
6.20059e-05
8.50335e-09
6.43107e-05
5.94005e-09
6.6701e-05
6.91801e-05
8.85581e-09
3.45772e-05
9.20257e-09
3.58629e-05
9.06223e-09
3.71965e-05
1.02746e-08
3.85773e-05
1.18223e-08
4.00102e-05
1.38056e-08
4.1497e-05
1.59027e-08
4.30398e-05
1.78101e-08
4.46404e-05
1.93426e-08
4.63008e-05
2.03283e-08
4.80231e-05
2.0751e-08
4.98093e-05
2.04966e-08
5.16619e-05
1.96926e-08
5.35832e-05
1.84355e-08
5.55758e-05
1.67741e-08
5.76424e-05
1.47993e-08
5.97856e-05
1.24883e-08
6.20082e-05
9.84155e-09
6.43134e-05
6.90691e-09
6.67039e-05
6.91833e-05
2.9636e-09
3.45751e-05
6.96398e-09
3.58589e-05
1.12504e-08
3.71922e-05
1.37299e-08
3.85749e-05
1.58049e-08
4.00082e-05
1.76793e-08
4.14951e-05
1.94527e-08
4.3038e-05
2.10124e-08
4.46389e-05
2.21999e-08
4.62996e-05
2.30095e-08
4.80223e-05
2.3364e-08
4.98089e-05
2.31723e-08
5.16621e-05
2.24542e-08
5.3584e-05
2.11207e-08
5.55771e-05
1.92576e-08
5.76442e-05
1.69583e-08
5.97879e-05
1.42467e-08
6.2011e-05
1.11975e-08
6.43164e-05
7.86241e-09
6.67073e-05
6.91869e-05
9.96946e-09
3.45721e-05
1.18223e-08
3.58571e-05
1.36807e-08
3.71903e-05
1.69578e-08
3.85716e-05
1.99825e-08
4.00051e-05
2.2429e-08
4.14927e-05
2.43123e-08
4.30361e-05
2.56663e-08
4.46375e-05
2.65382e-08
4.62988e-05
2.6957e-08
4.80219e-05
2.6831e-08
4.98091e-05
2.62263e-08
5.16627e-05
2.51477e-08
5.3585e-05
2.35385e-08
5.55787e-05
2.14761e-08
5.76463e-05
1.89211e-08
5.97904e-05
1.59083e-08
6.2014e-05
1.25264e-08
6.43198e-05
8.81333e-09
6.6711e-05
6.9191e-05
4.34454e-09
3.45695e-05
9.09512e-09
3.58523e-05
1.4674e-08
3.71847e-05
1.92799e-08
3.8567e-05
2.31353e-08
4.00013e-05
2.61755e-08
4.14896e-05
2.85031e-08
4.30338e-05
3.01111e-08
4.46359e-05
3.09715e-08
4.62979e-05
3.11299e-08
4.80217e-05
3.06429e-08
4.98096e-05
2.96659e-08
5.16637e-05
2.81563e-08
5.35865e-05
2.617e-08
5.55807e-05
2.3743e-08
5.76487e-05
2.08186e-08
5.97933e-05
1.74807e-08
6.20173e-05
1.37705e-08
6.43235e-05
9.70411e-09
6.67151e-05
6.91954e-05
1.01844e-08
3.45658e-05
1.37973e-08
3.58487e-05
1.81689e-08
3.71804e-05
2.31612e-08
3.8562e-05
2.7203e-08
3.99972e-05
3.02005e-08
4.14866e-05
3.23427e-08
4.30317e-05
3.39069e-08
4.46343e-05
3.4909e-08
4.62969e-05
3.51357e-08
4.80215e-05
3.45126e-08
4.98102e-05
3.31722e-08
5.1665e-05
3.12098e-08
5.35885e-05
2.88167e-08
5.55831e-05
2.59651e-08
5.76516e-05
2.26785e-08
5.97966e-05
1.90254e-08
6.2021e-05
1.49728e-08
6.43276e-05
1.0563e-08
6.67195e-05
6.92002e-05
5.90209e-09
3.4562e-05
1.28939e-08
3.58417e-05
2.0994e-08
3.71723e-05
2.71047e-08
3.85559e-05
3.17691e-08
3.99926e-05
3.49672e-08
4.14834e-05
3.69167e-08
4.30297e-05
3.7879e-08
4.46334e-05
3.82433e-08
4.62965e-05
3.8151e-08
4.80216e-05
3.75281e-08
4.98108e-05
3.61793e-08
5.16664e-05
3.40823e-08
5.35906e-05
3.13719e-08
5.55858e-05
2.81175e-08
5.76548e-05
2.44998e-08
5.98002e-05
2.051e-08
6.2025e-05
1.61103e-08
6.4332e-05
1.13708e-08
6.67242e-05
6.92053e-05
1.24372e-08
3.45566e-05
1.96037e-08
3.58346e-05
2.61806e-08
3.71657e-05
3.21584e-08
3.85499e-05
3.69172e-08
3.99878e-05
4.03938e-08
4.148e-05
4.25678e-08
4.30275e-05
4.34141e-08
4.46325e-05
4.31316e-08
4.62968e-05
4.20364e-08
4.80227e-05
4.04844e-08
4.98123e-05
3.85647e-08
5.16683e-05
3.62828e-08
5.35929e-05
3.34617e-08
5.55887e-05
3.00875e-08
5.76582e-05
2.62509e-08
5.98041e-05
2.19304e-08
6.20293e-05
1.72215e-08
6.43367e-05
1.21573e-08
6.67293e-05
6.92107e-05
1.13486e-08
3.455e-05
2.23507e-08
3.58236e-05
3.17053e-08
3.71563e-05
3.76446e-08
3.85439e-05
4.17957e-08
3.99837e-05
4.4867e-08
4.14769e-05
4.70208e-08
4.30254e-05
4.80766e-08
4.46315e-05
4.78722e-08
4.6297e-05
4.65419e-08
4.8024e-05
4.44465e-08
4.98144e-05
4.18353e-08
5.16709e-05
3.88669e-08
5.35958e-05
3.55236e-08
5.5592e-05
3.18389e-08
5.76619e-05
2.77164e-08
5.98082e-05
2.31482e-08
6.20338e-05
1.8216e-08
6.43416e-05
1.28753e-08
6.67346e-05
6.92164e-05
2.06839e-08
3.454e-05
3.23711e-08
3.58119e-05
3.96696e-08
3.7149e-05
4.46149e-08
3.8539e-05
4.74856e-08
3.99808e-05
4.94261e-08
4.14749e-05
5.06733e-08
4.30241e-05
5.12125e-08
4.46309e-05
5.10295e-08
4.62972e-05
4.99389e-08
4.80251e-05
4.78974e-08
4.98165e-05
4.50886e-08
5.16737e-05
4.16792e-08
5.35993e-05
3.78516e-08
5.55958e-05
3.37094e-08
5.7666e-05
2.91744e-08
5.98127e-05
2.43062e-08
6.20387e-05
1.91114e-08
6.43468e-05
1.35271e-08
6.67402e-05
6.92223e-05
2.36942e-08
3.45266e-05
3.8549e-08
3.5797e-05
4.75651e-08
3.714e-05
5.14932e-08
3.85351e-05
5.39698e-08
3.99783e-05
5.52106e-08
4.14737e-05
5.52368e-08
4.30241e-05
5.4602e-08
4.46316e-05
5.36096e-08
4.62982e-05
5.22402e-08
4.80264e-05
5.02814e-08
4.98184e-05
4.75465e-08
5.16764e-05
4.40324e-08
5.36028e-05
3.99725e-08
5.55999e-05
3.54653e-08
5.76705e-05
3.05759e-08
5.98176e-05
2.54078e-08
6.20439e-05
1.99339e-08
6.43523e-05
1.41323e-08
6.6746e-05
6.92285e-05
3.81721e-08
3.4507e-05
5.1613e-08
3.57836e-05
5.58406e-08
3.71358e-05
5.9152e-08
3.85318e-05
6.15869e-08
3.99759e-05
6.23533e-08
4.14729e-05
6.16909e-08
4.30248e-05
5.99992e-08
4.46333e-05
5.76808e-08
4.63005e-05
5.50699e-08
4.80291e-05
5.22916e-08
4.98212e-05
4.92048e-08
5.16795e-05
4.5664e-08
5.36063e-05
4.15937e-08
5.5604e-05
3.69406e-08
5.76752e-05
3.18645e-08
5.98227e-05
2.64384e-08
6.20493e-05
2.06904e-08
6.4358e-05
1.47003e-08
6.6752e-05
6.9235e-05
4.69572e-08
3.44815e-05
5.88511e-08
3.57717e-05
6.34023e-08
3.71312e-05
6.67934e-08
3.85284e-05
6.82294e-08
3.99744e-05
6.82504e-08
4.14729e-05
6.71432e-08
4.30259e-05
6.51604e-08
4.46352e-05
6.24129e-08
4.63033e-05
5.90942e-08
4.80324e-05
5.53963e-08
4.98249e-05
5.14252e-08
5.16835e-05
4.72591e-08
5.36105e-05
4.28096e-08
5.56084e-05
3.79935e-08
5.768e-05
3.28382e-08
5.98279e-05
2.72678e-08
6.20549e-05
2.1341e-08
6.4364e-05
1.52201e-08
6.67581e-05
6.92416e-05
6.78101e-08
3.4447e-05
7.06839e-08
3.57688e-05
7.31087e-08
3.71288e-05
7.45175e-08
3.8527e-05
7.45999e-08
3.99744e-05
7.37014e-08
4.14738e-05
7.19293e-08
4.30277e-05
6.93925e-08
4.46378e-05
6.61703e-08
4.63065e-05
6.24292e-08
4.80361e-05
5.82906e-08
4.98291e-05
5.3842e-08
5.16879e-05
4.9178e-08
5.36151e-05
4.42571e-08
5.56133e-05
3.9102e-08
5.76852e-05
3.36922e-08
5.98333e-05
2.79523e-08
6.20606e-05
2.18592e-08
6.437e-05
1.5653e-08
6.67643e-05
6.92484e-05
8.39933e-08
8.25515e-08
8.34924e-08
8.28603e-08
8.10883e-08
7.87611e-08
7.61184e-08
7.32046e-08
6.9803e-08
6.58244e-08
6.1287e-08
5.63592e-08
5.12053e-08
4.58638e-08
4.0381e-08
3.46802e-08
2.87265e-08
2.25252e-08
1.58491e-08
)
;

boundaryField
{
    movingWall
    {
        type            calculated;
        value           nonuniform List<scalar> 
60
(
1.30228e-08
1.45925e-08
1.63255e-08
1.81649e-08
2.01993e-08
2.2358e-08
2.46933e-08
2.72152e-08
2.98126e-08
3.26077e-08
3.55107e-08
3.84586e-08
4.15033e-08
4.46412e-08
4.81136e-08
5.13793e-08
5.46538e-08
5.82556e-08
6.18403e-08
6.53025e-08
6.89611e-08
7.19191e-08
7.49987e-08
7.80044e-08
8.0161e-08
8.04603e-08
7.95807e-08
7.6522e-08
7.16251e-08
6.45977e-08
5.64068e-08
4.71948e-08
3.83766e-08
2.99556e-08
2.31693e-08
1.71408e-08
1.30918e-08
9.21244e-09
7.30375e-09
4.25735e-09
2.21505e-10
8.16104e-10
1.41189e-09
1.98261e-09
2.55712e-09
3.12158e-09
3.67707e-09
4.21933e-09
4.77115e-09
5.29494e-09
5.80323e-09
6.27593e-09
6.73471e-09
7.16458e-09
7.56582e-09
7.93243e-09
8.27192e-09
8.58706e-09
8.86474e-09
9.11547e-09
)
;
    }
    leftSide
    {
        type            calculated;
        value           nonuniform List<scalar> 
20
(
-3.4585e-05
-3.587e-05
-3.72028e-05
-3.85851e-05
-4.00187e-05
-4.15056e-05
-4.30477e-05
-4.46472e-05
-4.6306e-05
-4.80265e-05
-4.9811e-05
-5.16617e-05
-5.35812e-05
-5.5572e-05
-5.76368e-05
-5.97783e-05
-6.19993e-05
-6.43029e-05
-6.66921e-05
-6.91701e-05
)
;
    }
    rightSide
    {
        type            calculated;
        value           nonuniform List<scalar> 
20
(
2.25827e-05
3.48411e-05
3.755e-05
3.90552e-05
4.05127e-05
4.20185e-05
4.35801e-05
4.51995e-05
4.68792e-05
4.86212e-05
5.04279e-05
5.23017e-05
5.4245e-05
5.62606e-05
5.83509e-05
6.05189e-05
6.27674e-05
6.50993e-05
6.7518e-05
7.00262e-05
)
;
    }
    bottomWall
    {
        type            calculated;
        value           uniform 0;
    }