/*--------------------------------*- C++ -*----------------------------------*\
  =========                 |
  \\      /  F ield         | OpenFOAM: The Open Source CFD Toolbox
   \\    /   O peration     | Website:  https://openfoam.org
    \\  /    A nd           | Version:  10
     \\/     M anipulation  |
\*---------------------------------------------------------------------------*/
FoamFile
{
    format      ascii;
    class       volVectorField;
    location    "0.3";
    object      U;
}
// * * * * * * * * * * * * * * * * * * * * * * * * * * * * * * * * * * * * * //

dimensions      [0 1 -1 0 0 0 0];

internalField   nonuniform List<vector> 
1200
(
(0 0.00207412 0.992373)
(0 0.00369241 0.997569)
(0 0.00314566 0.998209)
(0 0.00292044 0.998676)
(0 0.00278489 0.999079)
(0 0.00265661 0.999428)
(0 0.00252441 0.999737)
(0 0.00238557 0.999997)
(0 0.00225257 1.00021)
(0 0.00212053 1.00039)
(0 0.00198534 1.00053)
(0 0.00184289 1.00066)
(0 0.00168603 1.00078)
(0 0.00151872 1.00089)
(0 0.00134445 1.00099)
(0 0.00116509 1.00108)
(0 0.000980024 1.00115)
(0 0.000788325 1.00121)
(0 0.000628231 1.00125)
(0 0.000287481 1.0013)
(0 0.00294717 0.98485)
(0 0.00497889 0.997635)
(0 0.00386029 0.998252)
(0 0.00348435 0.998721)
(0 0.00324805 0.999126)
(0 0.00305319 0.999482)
(0 0.00287556 0.999792)
(0 0.00269468 1.00006)
(0 0.00251358 1.0003)
(0 0.00232808 1.00051)
(0 0.00214899 1.00068)
(0 0.00197713 1.00083)
(0 0.00180496 1.00095)
(0 0.00162982 1.00105)
(0 0.0014472 1.00114)
(0 0.0012556 1.00122)
(0 0.00105481 1.00129)
(0 0.000846605 1.00135)
(0 0.000675834 1.00139)
(0 0.000310626 1.00144)
(0 0.0036011 0.97777)
(0 0.00594211 0.99805)
(0 0.00447177 0.998591)
(0 0.00402991 0.998982)
(0 0.00372104 0.999351)
(0 0.00345136 0.999689)
(0 0.00320389 0.999986)
(0 0.00297673 1.00024)
(0 0.00276981 1.00046)
(0 0.00256565 1.00065)
(0 0.00236266 1.00082)
(0 0.00215713 1.00097)
(0 0.00195055 1.00111)
(0 0.00174752 1.00122)
(0 0.00154495 1.00132)
(0 0.00133854 1.00139)
(0 0.00112532 1.00146)
(0 0.000904365 1.00151)
(0 0.000724921 1.00156)
(0 0.000334983 1.0016)
(0 0.00395811 0.970569)
(0 0.00649216 0.998629)
(0 0.00491565 0.999144)
(0 0.00449671 0.999421)
(0 0.00415593 0.999708)
(0 0.00384021 0.99999)
(0 0.00354428 1.00025)
(0 0.00326405 1.00048)
(0 0.00300759 1.00069)
(0 0.00276548 1.00087)
(0 0.00254 1.00103)
(0 0.00232106 1.00117)
(0 0.00210252 1.00129)
(0 0.00188293 1.00139)
(0 0.00165906 1.00149)
(0 0.00143164 1.00157)
(0 0.00120049 1.00163)
(0 0.000962583 1.00169)
(0 0.000773381 1.00173)
(0 0.000359314 1.00178)
(0 0.00406536 0.962982)
(0 0.00664785 0.99921)
(0 0.00512153 0.999829)
(0 0.00482954 0.999995)
(0 0.0044913 1.00019)
(0 0.00415667 1.0004)
(0 0.00383315 1.0006)
(0 0.00353542 1.00078)
(0 0.0032599 1.00096)
(0 0.00299002 1.00112)
(0 0.00273243 1.00127)
(0 0.00248138 1.0014)
(0 0.0022381 1.00152)
(0 0.00200025 1.00162)
(0 0.00176264 1.0017)
(0 0.00152342 1.00177)
(0 0.00127779 1.00184)
(0 0.00102373 1.00189)
(0 0.000825128 1.00193)
(0 0.000385213 1.00198)
(0 0.00407538 0.954907)
(0 0.00661095 0.999674)
(0 0.00518608 1.00054)
(0 0.0050432 1.00061)
(0 0.00474739 1.00072)
(0 0.0044076 1.00086)
(0 0.00406276 1.00101)
(0 0.003747 1.00115)
(0 0.00345314 1.00129)
(0 0.00317532 1.00142)
(0 0.00291103 1.00154)
(0 0.00264867 1.00165)
(0 0.0023886 1.00175)
(0 0.00212975 1.00184)
(0 0.0018719 1.00192)
(0 0.00161351 1.00199)
(0 0.00135113 1.00205)
(0 0.00108274 1.0021)
(0 0.000876047 1.00213)
(0 0.000411092 1.00218)
(0 0.00402903 0.94621)
(0 0.0065048 0.999939)
(0 0.00515497 1.00123)
(0 0.00515921 1.00125)
(0 0.00490994 1.00129)
(0 0.0045897 1.00136)
(0 0.0042596 1.00145)
(0 0.00394518 1.00155)
(0 0.00363955 1.00166)
(0 0.00334135 1.00177)
(0 0.00305594 1.00187)
(0 0.0027791 1.00196)
(0 0.00251014 1.00204)
(0 0.00224388 1.00212)
(0 0.00197606 1.00219)
(0 0.00170478 1.00224)
(0 0.00142877 1.0023)
(0 0.00114418 1.00234)
(0 0.000927962 1.00238)
(0 0.000437773 1.00242)
(0 0.00399701 0.937057)
(0 0.00639651 0.999948)
(0 0.00506956 1.0018)
(0 0.00518463 1.00183)
(0 0.0049795 1.00183)
(0 0.00469328 1.00185)
(0 0.00438176 1.00189)
(0 0.00408421 1.00195)
(0 0.0037874 1.00202)
(0 0.00349617 1.0021)
(0 0.00320981 1.00218)
(0 0.00292138 1.00225)
(0 0.00263505 1.00232)
(0 0.00235063 1.00239)
(0 0.00206781 1.00245)
(0 0.00178554 1.0025)
(0 0.00149779 1.00255)
(0 0.00120043 1.00258)
(0 0.000979425 1.00262)
(0 0.000465184 1.00266)
(0 0.00402672 0.927454)
(0 0.00641522 0.999772)
(0 0.0050911 1.0023)
(0 0.00522317 1.00235)
(0 0.00502704 1.00237)
(0 0.00475304 1.00236)
(0 0.00447075 1.00238)
(0 0.00419056 1.00241)
(0 0.00389615 1.00246)
(0 0.00360593 1.00251)
(0 0.00331714 1.00256)
(0 0.00303005 1.00262)
(0 0.00274504 1.00267)
(0 0.00245701 1.00272)
(0 0.0021657 1.00276)
(0 0.00186937 1.00281)
(0 0.00156665 1.00285)
(0 0.00125607 1.00288)
(0 0.00102881 1.00291)
(0 0.000491336 1.00295)
(0 0.00402676 0.917421)
(0 0.00646011 0.999368)
(0 0.00513605 1.00266)
(0 0.00529165 1.00279)
(0 0.00507142 1.00281)
(0 0.0047914 1.0028)
(0 0.00452955 1.00281)
(0 0.00426585 1.00282)
(0 0.00399474 1.00284)
(0 0.00371525 1.00287)
(0 0.00342461 1.00291)
(0 0.00312959 1.00295)
(0 0.0028337 1.003)
(0 0.0025378 1.00304)
(0 0.00224049 1.00307)
(0 0.00193861 1.0031)
(0 0.00163079 1.00313)
(0 0.00130982 1.00316)
(0 0.00107756 1.00318)
(0 0.000518198 1.00321)
(0 0.00405498 0.907149)
(0 0.00650484 0.998854)
(0 0.00520878 1.003)
(0 0.00537023 1.00319)
(0 0.00511656 1.00324)
(0 0.00483865 1.00326)
(0 0.00457274 1.00327)
(0 0.00430979 1.00329)
(0 0.00404391 1.0033)
(0 0.00377807 1.00332)
(0 0.0035061 1.00334)
(0 0.00322299 1.00336)
(0 0.00292901 1.00338)
(0 0.00262608 1.00341)
(0 0.00231718 1.00344)
(0 0.00200535 1.00346)
(0 0.0016871 1.00349)
(0 0.00135479 1.00351)
(0 0.00112209 1.00353)
(0 0.000544147 1.00356)
(0 0.00410394 0.896447)
(0 0.00662739 0.998143)
(0 0.00538972 1.00323)
(0 0.00552298 1.00347)
(0 0.00522588 1.00356)
(0 0.00491358 1.00359)
(0 0.0046488 1.00362)
(0 0.00438907 1.00364)
(0 0.00411945 1.00367)
(0 0.00384583 1.00369)
(0 0.00356207 1.00371)
(0 0.00327514 1.00373)
(0 0.00298497 1.00375)
(0 0.00268743 1.00376)
(0 0.00238234 1.00377)
(0 0.00206866 1.00378)
(0 0.00174357 1.00379)
(0 0.00140263 1.00381)
(0 0.00116606 1.00382)
(0 0.000568274 1.00385)
(0 0.00407609 0.885386)
(0 0.00666336 0.997415)
(0 0.00548397 1.00359)
(0 0.00566344 1.00391)
(0 0.00533902 1.00398)
(0 0.00500377 1.00403)
(0 0.00472662 1.00407)
(0 0.00445253 1.00409)
(0 0.00419356 1.00412)
(0 0.0039281 1.00413)
(0 0.00364844 1.00415)
(0 0.00335746 1.00417)
(0 0.00305318 1.00418)
(0 0.00274186 1.00419)
(0 0.00242905 1.0042)
(0 0.00211249 1.00421)
(0 0.00178861 1.00422)
(0 0.00144195 1.00423)
(0 0.00120374 1.00423)
(0 0.000591478 1.00425)
(0 0.00409083 0.874039)
(0 0.00666542 0.996452)
(0 0.00554987 1.00384)
(0 0.00576133 1.00422)
(0 0.00542923 1.00428)
(0 0.00511754 1.00435)
(0 0.00482341 1.00439)
(0 0.00453455 1.00444)
(0 0.00425614 1.00448)
(0 0.00397638 1.00451)
(0 0.00369928 1.00452)
(0 0.00341298 1.00452)
(0 0.00311309 1.00452)
(0 0.00280472 1.00452)
(0 0.00248984 1.00453)
(0 0.0021686 1.00453)
(0 0.0018353 1.00454)
(0 0.00147309 1.00455)
(0 0.00123586 1.00455)
(0 0.000613712 1.00457)
(0 0.00410648 0.862237)
(0 0.00672639 0.995528)
(0 0.00567583 1.00431)
(0 0.00586282 1.00472)
(0 0.00554334 1.00479)
(0 0.0052244 1.00483)
(0 0.00494097 1.00487)
(0 0.00466673 1.00492)
(0 0.00437618 1.00495)
(0 0.00407781 1.00499)
(0 0.0037695 1.00502)
(0 0.00345581 1.00503)
(0 0.00314562 1.00503)
(0 0.00283961 1.00503)
(0 0.00253177 1.00503)
(0 0.00221445 1.00503)
(0 0.00187444 1.00503)
(0 0.00150519 1.00502)
(0 0.00127386 1.00502)
(0 0.000638001 1.00504)
(0 0.00403182 0.849927)
(0 0.00671421 0.994317)
(0 0.00567621 1.0047)
(0 0.00589926 1.00522)
(0 0.00559568 1.00525)
(0 0.00529032 1.00526)
(0 0.00502793 1.00529)
(0 0.00474062 1.00531)
(0 0.00445467 1.00532)
(0 0.00416305 1.00533)
(0 0.00385632 1.00534)
(0 0.00354154 1.00534)
(0 0.00322198 1.00535)
(0 0.00290021 1.00536)
(0 0.00257775 1.00536)
(0 0.00224575 1.00536)
(0 0.00189775 1.00535)
(0 0.00152929 1.00535)
(0 0.00130314 1.00534)
(0 0.000657085 1.00536)
(0 0.00402022 0.837404)
(0 0.00665654 0.993086)
(0 0.00565757 1.00523)
(0 0.00589447 1.00592)
(0 0.00557043 1.00595)
(0 0.00532213 1.00596)
(0 0.00506996 1.00596)
(0 0.00478677 1.00596)
(0 0.00450099 1.00597)
(0 0.00419504 1.00597)
(0 0.00388979 1.00597)
(0 0.0035841 1.00596)
(0 0.0032738 1.00595)
(0 0.00295882 1.00594)
(0 0.00263398 1.00593)
(0 0.00229016 1.00592)
(0 0.00193762 1.00591)
(0 0.0015614 1.00591)
(0 0.00132961 1.0059)
(0 0.000674311 1.00591)
(0 0.00407183 0.824303)
(0 0.00676928 0.99142)
(0 0.00584428 1.00548)
(0 0.00597961 1.00629)
(0 0.00561631 1.00636)
(0 0.00533769 1.00637)
(0 0.0050732 1.00635)
(0 0.00483485 1.00634)
(0 0.00456339 1.00632)
(0 0.0042646 1.00632)
(0 0.00395001 1.00631)
(0 0.00362229 1.00631)
(0 0.00329785 1.0063)
(0 0.00297886 1.00628)
(0 0.00265135 1.00626)
(0 0.00231203 1.00624)
(0 0.00196915 1.00623)
(0 0.00158752 1.00621)
(0 0.00135556 1.0062)
(0 0.000693485 1.00621)
(0 0.00397794 0.810619)
(0 0.00683098 0.989856)
(0 0.00594273 1.00613)
(0 0.00606664 1.00711)
(0 0.0056967 1.00719)
(0 0.00534258 1.00718)
(0 0.00507127 1.00718)
(0 0.00481536 1.00716)
(0 0.00454493 1.00712)
(0 0.00427816 1.00708)
(0 0.0039831 1.00704)
(0 0.00367058 1.007)
(0 0.0033522 1.00698)
(0 0.00302181 1.00696)
(0 0.00267555 1.00693)
(0 0.00233201 1.00691)
(0 0.00198705 1.0069)
(0 0.00159646 1.00688)
(0 0.00137217 1.00686)
(0 0.000710186 1.00687)
(0 0.00389317 0.796563)
(0 0.00670761 0.987581)
(0 0.0058596 1.00618)
(0 0.00608496 1.00744)
(0 0.00570058 1.00749)
(0 0.00537824 1.0075)
(0 0.00511696 1.00753)
(0 0.00480279 1.00752)
(0 0.00451185 1.00751)
(0 0.00421723 1.00748)
(0 0.00391702 1.00744)
(0 0.00362945 1.00738)
(0 0.00334003 1.00733)
(0 0.00302507 1.00728)
(0 0.00269036 1.00723)
(0 0.00235676 1.00719)
(0 0.00200727 1.00717)
(0 0.00160795 1.00714)
(0 0.00138745 1.00713)
(0 0.000723501 1.00713)
(0 0.00396077 0.78236)
(0 0.00669267 0.98553)
(0 0.0059484 1.00664)
(0 0.00613533 1.00815)
(0 0.00572104 1.00822)
(0 0.00547374 1.00826)
(0 0.00518533 1.00825)
(0 0.0048862 1.00825)
(0 0.00458721 1.00826)
(0 0.0042449 1.00825)
(0 0.00391406 1.00824)
(0 0.00360194 1.00821)
(0 0.00329432 1.00818)
(0 0.00297356 1.00812)
(0 0.00265586 1.00807)
(0 0.00234011 1.00802)
(0 0.0020007 1.00797)
(0 0.00160881 1.00793)
(0 0.00139978 1.0079)
(0 0.000736963 1.00789)
(0 0.00394091 0.76724)
(0 0.00687136 0.982872)
(0 0.00618574 1.00681)
(0 0.00620843 1.00852)
(0 0.00581885 1.00863)
(0 0.00551635 1.00861)
(0 0.00519571 1.00857)
(0 0.00494108 1.00855)
(0 0.00462889 1.0085)
(0 0.00429728 1.00846)
(0 0.00397234 1.00843)
(0 0.00364698 1.0084)
(0 0.0033101 1.00837)
(0 0.00296518 1.00832)
(0 0.00263699 1.00828)
(0 0.00231181 1.00824)
(0 0.00197366 1.00819)
(0 0.00158683 1.00815)
(0 0.00139063 1.00811)
(0 0.000741325 1.00809)
(0 0.00369275 0.751802)
(0 0.00679838 0.980555)
(0 0.00608751 1.00772)
(0 0.00614529 1.00983)
(0 0.00579661 1.00993)
(0 0.00540495 1.00983)
(0 0.00513546 1.00978)
(0 0.00486202 1.00971)
(0 0.00453658 1.00962)
(0 0.00423342 1.00954)
(0 0.00393104 1.00946)
(0 0.00362817 1.00938)
(0 0.00330079 1.0093)
(0 0.00296765 1.00924)
(0 0.00264016 1.00918)
(0 0.00230633 1.00913)
(0 0.00196729 1.00908)
(0 0.00157556 1.00904)
(0 0.00138357 1.009)
(0 0.000745932 1.00898)
(0 0.00357006 0.736434)
(0 0.00646247 0.977241)
(0 0.00576572 1.0075)
(0 0.00600021 1.01014)
(0 0.0055816 1.01022)
(0 0.00523733 1.01015)
(0 0.00502345 1.01011)
(0 0.00470652 1.01001)
(0 0.00439578 1.00994)
(0 0.00409154 1.00984)
(0 0.00379528 1.00975)
(0 0.00350222 1.00965)
(0 0.00319053 1.00954)
(0 0.0028865 1.00944)
(0 0.00257792 1.00935)
(0 0.00226124 1.00927)
(0 0.00194072 1.0092)
(0 0.0015553 1.00915)
(0 0.00137257 1.0091)
(0 0.000748543 1.00908)
(0 0.00373334 0.721219)
(0 0.00640374 0.974519)
(0 0.00583359 1.00808)
(0 0.00600666 1.01114)
(0 0.00544894 1.01126)
(0 0.00519551 1.01126)
(0 0.00492472 1.0112)
(0 0.00458752 1.01111)
(0 0.00428631 1.01104)
(0 0.00396346 1.01094)
(0 0.00366655 1.01084)
(0 0.00336125 1.01074)
(0 0.00305183 1.01063)
(0 0.00275771 1.01053)
(0 0.00245797 1.01042)
(0 0.00216101 1.01032)
(0 0.00186499 1.01024)
(0 0.00149648 1.01016)
(0 0.00133618 1.0101)
(0 0.000741888 1.01007)
(0 0.00375871 0.704476)
(0 0.00662488 0.970866)
(0 0.00616793 1.00813)
(0 0.00599632 1.01153)
(0 0.00541658 1.01166)
(0 0.00514491 1.01163)
(0 0.00475402 1.01148)
(0 0.00442849 1.01137)
(0 0.00410605 1.01124)
(0 0.00377726 1.0111)
(0 0.00349019 1.01097)
(0 0.00318314 1.01084)
(0 0.00288751 1.01071)
(0 0.00260147 1.01058)
(0 0.00231066 1.01047)
(0 0.00203026 1.01036)
(0 0.00175518 1.01026)
(0 0.00140493 1.01018)
(0 0.00126789 1.01011)
(0 0.00071821 1.01007)
(0 0.00318868 0.687463)
(0 0.00645416 0.967925)
(0 0.00588383 1.00955)
(0 0.00553845 1.01344)
(0 0.00511361 1.01355)
(0 0.00474372 1.01331)
(0 0.00433563 1.01305)
(0 0.00406624 1.01285)
(0 0.00371524 1.01261)
(0 0.00342774 1.0124)
(0 0.00316529 1.01221)
(0 0.00288325 1.01202)
(0 0.00262525 1.01185)
(0 0.00236821 1.01169)
(0 0.00210832 1.01154)
(0 0.00185834 1.01142)
(0 0.00161544 1.0113)
(0 0.00129246 1.01121)
(0 0.00118195 1.01114)
(0 0.000685252 1.01108)
(0 0.0020949 0.671881)
(0 0.00531448 0.964315)
(0 0.0044254 1.00974)
(0 0.0043607 1.0142)
(0 0.00414587 1.01423)
(0 0.0037422 1.01378)
(0 0.00355624 1.01345)
(0 0.00334351 1.01312)
(0 0.00305071 1.0128)
(0 0.00287375 1.01254)
(0 0.0026571 1.01228)
(0 0.00243764 1.01205)
(0 0.00223902 1.01184)
(0 0.00203251 1.01165)
(0 0.00182354 1.01148)
(0 0.00161948 1.01133)
(0 0.00142398 1.0112)
(0 0.00114285 1.01109)
(0 0.00106535 1.01101)
(0 0.000635556 1.01094)
(0 0.00104868 0.66119)
(0 0.0035506 0.962796)
(0 0.00237133 1.01048)
(0 0.00283784 1.01542)
(0 0.00267018 1.01533)
(0 0.00244814 1.01489)
(0 0.00253857 1.01455)
(0 0.00233684 1.01415)
(0 0.00223502 1.01384)
(0 0.00216476 1.01355)
(0 0.00201906 1.01327)
(0 0.00189516 1.01303)
(0 0.00176908 1.01281)
(0 0.0016284 1.01261)
(0 0.00148135 1.01244)
(0 0.00133177 1.01228)
(0 0.00119235 1.01215)
(0 0.000962373 1.01204)
(0 0.00092454 1.01195)
(0 0.000573735 1.01187)
(0 0.000405897 0.654667)
(0 0.00172227 0.961876)
(0 0.000525169 1.00969)
(0 0.00144616 1.01473)
(0 0.00111384 1.01457)
(0 0.00134648 1.01435)
(0 0.00144871 1.01399)
(0 0.00136211 1.01367)
(0 0.00145647 1.01341)
(0 0.00142997 1.01314)
(0 0.00138223 1.0129)
(0 0.00134967 1.01268)
(0 0.00129026 1.01248)
(0 0.00121594 1.0123)
(0 0.00112941 1.01214)
(0 0.00103301 1.01199)
(0 0.000948198 1.01186)
(0 0.000770634 1.01176)
(0 0.000767545 1.01168)
(0 0.00049904 1.0116)
(0 0.000118772 0.652677)
(0 0.000498071 0.96348)
(0 -0.000526418 1.00992)
(0 0.000462609 1.01455)
(0 3.43564e-05 1.01454)
(0 0.000594256 1.01447)
(0 0.000513899 1.01417)
(0 0.000668209 1.014)
(0 0.00078352 1.0138)
(0 0.000795374 1.0136)
(0 0.000842373 1.01343)
(0 0.000865145 1.01326)
(0 0.000858414 1.0131)
(0 0.000840214 1.01295)
(0 0.000805101 1.01282)
(0 0.000755033 1.0127)
(0 0.000717963 1.01259)
(0 0.000589667 1.01249)
(0 0.000612997 1.01242)
(0 0.000420254 1.01234)
(0 -8.9629e-06 0.65178)
(0 -1.47351e-05 0.964821)
(0 -0.000946094 1.00917)
(0 -8.64313e-05 1.01321)
(0 -0.00040081 1.0134)
(0 0.000107642 1.01336)
(0 -3.59841e-06 1.0132)
(0 0.000283719 1.01313)
(0 0.000308763 1.01299)
(0 0.000390526 1.01288)
(0 0.000467273 1.01277)
(0 0.000504688 1.01265)
(0 0.000529483 1.01254)
(0 0.00054342 1.01244)
(0 0.000540661 1.01234)
(0 0.000521735 1.01224)
(0 0.000517845 1.01216)
(0 0.00043032 1.01208)
(0 0.000467631 1.01202)
(0 0.000339112 1.01195)
(0 -2.56666e-05 0.652701)
(0 -0.000193111 0.967472)
(0 -0.000911445 1.00955)
(0 -0.000263476 1.01311)
(0 -0.000534402 1.01338)
(0 -0.000121083 1.01335)
(0 -0.000204666 1.01332)
(0 2.80147e-05 1.01328)
(0 3.02017e-05 1.01321)
(0 0.000156357 1.01317)
(0 0.000211159 1.0131)
(0 0.000259325 1.01303)
(0 0.000299961 1.01296)
(0 0.00032879 1.01289)
(0 0.000344469 1.01283)
(0 0.000344393 1.01276)
(0 0.000360337 1.0127)
(0 0.000303796 1.01264)
(0 0.000346201 1.0126)
(0 0.000265985 1.01254)
(0 -9.1249e-06 0.652565)
(0 -0.000177564 0.968561)
(0 -0.000657174 1.00899)
(0 -0.000226118 1.01221)
(0 -0.000427493 1.0125)
(0 -0.000137588 1.01248)
(0 -0.000212665 1.0125)
(0 -4.62542e-05 1.01249)
(0 -4.67713e-05 1.01247)
(0 5.36124e-05 1.01246)
(0 7.93093e-05 1.01242)
(0 0.000127162 1.01239)
(0 0.000163719 1.01235)
(0 0.000191802 1.01231)
(0 0.000212326 1.01227)
(0 0.000219318 1.01223)
(0 0.000242627 1.01219)
(0 0.000207311 1.01215)
(0 0.00024661 1.01212)
(0 0.000200307 1.01207)
(0 -1.43035e-07 0.653511)
(0 -0.000135192 0.970383)
(0 -0.000428913 1.00954)
(0 -0.000180522 1.01254)
(0 -0.000312957 1.0128)
(0 -0.000132484 1.01279)
(0 -0.000183526 1.01282)
(0 -7.03337e-05 1.01282)
(0 -7.02251e-05 1.01283)
(0 -1.4846e-06 1.01282)
(0 1.85548e-05 1.01281)
(0 5.96671e-05 1.0128)
(0 8.80747e-05 1.01278)
(0 0.0001121 1.01276)
(0 0.00013214 1.01273)
(0 0.000140865 1.01271)
(0 0.000164514 1.01268)
(0 0.000142617 1.01266)
(0 0.000175977 1.01264)
(0 0.000149524 1.0126)
(0 8.69917e-06 0.653041)
(0 -6.46161e-05 0.970416)
(0 -0.000214245 1.00899)
(0 -8.39775e-05 1.0119)
(0 -0.000160605 1.01212)
(0 -6.41031e-05 1.01212)
(0 -9.93065e-05 1.01215)
(0 -3.68913e-05 1.01215)
(0 -4.17596e-05 1.01216)
(0 -1.68667e-06 1.01216)
(0 8.14085e-06 1.01217)
(0 3.47498e-05 1.01216)
(0 5.25468e-05 1.01215)
(0 6.9027e-05 1.01214)
(0 8.40915e-05 1.01213)
(0 9.06292e-05 1.01212)
(0 0.00011004 1.0121)
(0 9.61636e-05 1.01209)
(0 0.00012122 1.01207)
(0 0.000106781 1.01205)
(0 7.2514e-06 0.653806)
(0 -3.85707e-05 0.971464)
(0 -0.000114986 1.00957)
(0 -5.64398e-05 1.01241)
(0 -9.33387e-05 1.0126)
(0 -4.30354e-05 1.01261)
(0 -5.82475e-05 1.01263)
(0 -2.21911e-05 1.01263)
(0 -2.25492e-05 1.01265)
(0 3.00261e-06 1.01265)
(0 9.95185e-06 1.01265)
(0 2.6738e-05 1.01265)
(0 3.8572e-05 1.01265)
(0 4.97072e-05 1.01265)
(0 6.0516e-05 1.01264)
(0 6.48995e-05 1.01264)
(0 7.95222e-05 1.01263)
(0 7.0121e-05 1.01262)
(0 8.87592e-05 1.01261)
(0 7.87596e-05 1.01259)
(0 1.44725e-05 0.652988)
(0 8.37911e-06 0.97086)
(0 -1.60328e-05 1.00892)
(0 1.18223e-05 1.01177)
(0 -7.78058e-06 1.01194)
(0 1.33032e-05 1.01195)
(0 2.13708e-06 1.01196)
(0 1.66719e-05 1.01196)
(0 1.34144e-05 1.01197)
(0 2.3666e-05 1.01197)
(0 2.61021e-05 1.01198)
(0 3.27724e-05 1.01198)
(0 3.77218e-05 1.01198)
(0 4.24541e-05 1.01198)
(0 4.75164e-05 1.01198)
(0 4.83224e-05 1.01197)
(0 5.67896e-05 1.01197)
(0 4.93963e-05 1.01196)
(0 6.07241e-05 1.01196)
(0 5.35047e-05 1.01195)
(0 3.20533e-06 0.653718)
(0 -5.6272e-06 0.971556)
(0 -1.19221e-05 1.00942)
(0 2.18717e-06 1.01225)
(0 -1.49438e-06 1.01241)
(0 1.21051e-05 1.01242)
(0 1.07402e-05 1.01243)
(0 2.00764e-05 1.01244)
(0 2.09237e-05 1.01245)
(0 2.69237e-05 1.01245)
(0 2.94641e-05 1.01245)
(0 3.33193e-05 1.01246)
(0 3.63055e-05 1.01246)
(0 3.89258e-05 1.01246)
(0 4.18916e-05 1.01246)
(0 4.1575e-05 1.01246)
(0 4.67779e-05 1.01245)
(0 4.05864e-05 1.01245)
(0 4.81157e-05 1.01245)
(0 4.09306e-05 1.01244)
(0 6.76155e-05 0.652515)
(0 0.000103204 0.970643)
(0 9.99401e-05 1.00864)
(0 9.45333e-05 1.01149)
(0 8.39465e-05 1.01165)
(0 7.90652e-05 1.01166)
(0 7.05637e-05 1.01167)
(0 6.61931e-05 1.01167)
(0 5.99549e-05 1.01168)
(0 5.59398e-05 1.01168)
(0 5.14607e-05 1.01169)
(0 4.78659e-05 1.01169)
(0 4.44529e-05 1.01169)
(0 4.12101e-05 1.01169)
(0 3.87062e-05 1.01169)
(0 3.47182e-05 1.01169)
(0 3.40933e-05 1.01169)
(0 2.76199e-05 1.01169)
(0 2.88717e-05 1.01168)
(0 2.30111e-05 1.01168)
(0 4.89477e-05 0.99548)
(0 5.48172e-05 0.999638)
(0 1.93506e-05 0.999989)
(0 1.91558e-05 1)
(0 1.68715e-05 1)
(0 1.55675e-05 1)
(0 1.49335e-05 1)
(0 1.65721e-05 1)
(0 1.95765e-05 1)
(0 2.24105e-05 1)
(0 2.45843e-05 1)
(0 2.54778e-05 0.999999)
(0 2.49878e-05 0.999999)
(0 2.38701e-05 0.999999)
(0 2.22803e-05 1)
(0 2.0229e-05 1)
(0 1.77381e-05 1)
(0 1.46761e-05 1)
(0 1.09161e-05 1)
(0 4.42673e-06 1)
(0 -9.69236e-05 1.00442)
(0 -0.00010786 1.00031)
(0 1.42174e-06 1.00001)
(0 3.19367e-05 0.999991)
(0 3.78575e-05 0.999987)
(0 4.67099e-05 0.999987)
(0 5.52022e-05 0.999988)
(0 5.96252e-05 0.99999)
(0 6.11849e-05 0.999993)
(0 6.32462e-05 0.999997)
(0 6.62466e-05 1)
(0 6.88109e-05 1)
(0 7.06019e-05 1)
(0 7.00539e-05 1)
(0 6.66846e-05 1.00001)
(0 6.1073e-05 1.00001)
(0 5.34691e-05 1.00001)
(0 4.42439e-05 1.00001)
(0 3.32683e-05 1.00001)
(0 1.36538e-05 1.00001)
(0 5.24379e-05 0.99564)
(0 6.51817e-05 0.999675)
(0 3.92173e-05 0.999985)
(0 5.17789e-05 0.999984)
(0 6.23015e-05 0.99998)
(0 7.48081e-05 0.999982)
(0 8.77455e-05 0.999982)
(0 0.000101802 0.99998)
(0 0.00011381 0.999981)
(0 0.000121171 0.999984)
(0 0.000122835 0.999989)
(0 0.000122421 0.999998)
(0 0.00012063 1.00001)
(0 0.000116529 1.00001)
(0 0.000110415 1.00002)
(0 0.000101309 1.00002)
(0 8.89513e-05 1.00002)
(0 7.38718e-05 1.00002)
(0 5.62631e-05 1.00003)
(0 2.34962e-05 1.00003)
(0 -6.51822e-05 1.00413)
(0 -5.6958e-05 1.00019)
(0 2.41466e-05 0.999967)
(0 5.31134e-05 0.999957)
(0 8.35518e-05 0.999956)
(0 0.00010436 0.99996)
(0 0.000118322 0.99997)
(0 0.000132163 0.999981)
(0 0.000147672 0.999989)
(0 0.000161864 0.999992)
(0 0.000172968 0.999996)
(0 0.000178781 1)
(0 0.000176698 1.00001)
(0 0.00016963 1.00002)
(0 0.000158688 1.00003)
(0 0.00014363 1.00004)
(0 0.000125343 1.00004)
(0 0.000104 1.00005)
(0 7.97956e-05 1.00005)
(0 3.36633e-05 1.00006)
(0 9.04403e-05 0.995719)
(0 0.000137593 0.999603)
(0 8.7636e-05 0.999874)
(0 8.81404e-05 0.999889)
(0 0.000114895 0.999896)
(0 0.000149326 0.999902)
(0 0.000178074 0.999915)
(0 0.00019614 0.999935)
(0 0.000206092 0.999959)
(0 0.000213601 0.999981)
(0 0.000221625 1)
(0 0.000226458 1.00002)
(0 0.00022673 1.00003)
(0 0.000221592 1.00004)
(0 0.000208387 1.00005)
(0 0.000188833 1.00006)
(0 0.00016442 1.00007)
(0 0.000135897 1.00008)
(0 0.000104793 1.00008)
(0 4.46325e-05 1.00009)
(0 -2.13384e-05 1.00381)
(0 2.43149e-05 1.00002)
(0 9.37541e-05 0.999844)
(0 0.000117101 0.99985)
(0 0.000147858 0.999862)
(0 0.000181609 0.999876)
(0 0.000221077 0.999888)
(0 0.000255818 0.999902)
(0 0.000280027 0.999922)
(0 0.000293518 0.999948)
(0 0.000296594 0.999978)
(0 0.000292169 1.00001)
(0 0.000285468 1.00003)
(0 0.000274049 1.00006)
(0 0.000256466 1.00007)
(0 0.000233412 1.00009)
(0 0.000203674 1.0001)
(0 0.000168788 1.00011)
(0 0.000131059 1.00012)
(0 5.61923e-05 1.00013)
(0 0.000111377 0.995829)
(0 0.000190174 0.999542)
(0 0.000150533 0.999768)
(0 0.000163033 0.999796)
(0 0.000197621 0.999822)
(0 0.000233033 0.999852)
(0 0.000266015 0.999884)
(0 0.000300284 0.999912)
(0 0.000332032 0.999934)
(0 0.000356808 0.999958)
(0 0.000368981 0.999981)
(0 0.00036968 1.00001)
(0 0.000359983 1.00004)
(0 0.000339777 1.00007)
(0 0.000313955 1.0001)
(0 0.000282581 1.00012)
(0 0.000244775 1.00014)
(0 0.000202715 1.00015)
(0 0.000158287 1.00017)
(0 6.83832e-05 1.00018)
(0 1.90007e-05 1.00345)
(0 9.22781e-05 0.999807)
(0 0.000180303 0.999666)
(0 0.00022521 0.999685)
(0 0.000269879 0.99972)
(0 0.000312459 0.999764)
(0 0.000348928 0.999816)
(0 0.000375438 0.99987)
(0 0.000399122 0.999922)
(0 0.00041877 0.999967)
(0 0.000429993 1)
(0 0.000433598 1.00004)
(0 0.000424928 1.00007)
(0 0.000404682 1.0001)
(0 0.000375727 1.00013)
(0 0.000336578 1.00015)
(0 0.000290205 1.00018)
(0 0.000239616 1.0002)
(0 0.000187134 1.00021)
(0 8.11633e-05 1.00023)
(0 0.000136323 0.995819)
(0 0.000244832 0.999389)
(0 0.000236086 0.999576)
(0 0.000283977 0.999604)
(0 0.000347864 0.999638)
(0 0.000405127 0.999681)
(0 0.00045078 0.999732)
(0 0.000483994 0.999795)
(0 0.000505271 0.999867)
(0 0.000514637 0.999936)
(0 0.000516233 0.999997)
(0 0.000510774 1.00005)
(0 0.000494358 1.00009)
(0 0.000469948 1.00013)
(0 0.000435472 1.00017)
(0 0.000389854 1.0002)
(0 0.000336997 1.00022)
(0 0.000278057 1.00025)
(0 0.000217636 1.00027)
(0 9.49687e-05 1.00028)
(0 3.58809e-05 1.00311)
(0 0.000136895 0.999624)
(0 0.000255704 0.999521)
(0 0.000340207 0.999553)
(0 0.000415358 0.999604)
(0 0.000481188 0.999658)
(0 0.000539705 0.999712)
(0 0.000587276 0.99977)
(0 0.000616258 0.999836)
(0 0.000623454 0.999908)
(0 0.000617582 0.999982)
(0 0.000601834 1.00005)
(0 0.000576879 1.00011)
(0 0.000544279 1.00016)
(0 0.000500114 1.00021)
(0 0.00044651 1.00024)
(0 0.000385323 1.00028)
(0 0.000316999 1.0003)
(0 0.000248745 1.00032)
(0 0.000109093 1.00034)
(0 0.000136196 0.995852)
(0 0.00026962 0.999281)
(0 0.000322921 0.999439)
(0 0.000430797 0.999482)
(0 0.000523333 0.99955)
(0 0.000585974 0.999634)
(0 0.000634728 0.999721)
(0 0.00067848 0.999797)
(0 0.000713187 0.999863)
(0 0.000729874 0.999925)
(0 0.000726907 0.999993)
(0 0.000704476 1.00006)
(0 0.000669317 1.00013)
(0 0.000624461 1.0002)
(0 0.000569354 1.00025)
(0 0.000506951 1.00029)
(0 0.00043581 1.00033)
(0 0.000357515 1.00036)
(0 0.000281128 1.00039)
(0 0.000123798 1.00041)
(0 4.96912e-05 1.00266)
(0 0.000188245 0.999338)
(0 0.000358545 0.999301)
(0 0.000512155 0.999364)
(0 0.000642859 0.999441)
(0 0.000729991 0.99954)
(0 0.000776343 0.999658)
(0 0.00079698 0.999778)
(0 0.000808607 0.999886)
(0 0.000816236 0.999973)
(0 0.000815976 1.00005)
(0 0.000798791 1.00011)
(0 0.000763674 1.00018)
(0 0.000710661 1.00024)
(0 0.00064535 1.0003)
(0 0.000571482 1.00035)
(0 0.000488201 1.00039)
(0 0.000399282 1.00043)
(0 0.000314084 1.00045)
(0 0.000138678 1.00048)
(0 0.000164613 0.995629)
(0 0.00036444 0.998945)
(0 0.000475995 0.999138)
(0 0.00063141 0.999245)
(0 0.000768647 0.999348)
(0 0.000878258 0.999448)
(0 0.000946576 0.999556)
(0 0.000971786 0.999685)
(0 0.000965826 0.999823)
(0 0.000944984 0.999956)
(0 0.000918319 1.00007)
(0 0.0008862 1.00016)
(0 0.000844167 1.00024)
(0 0.000787976 1.0003)
(0 0.000719292 1.00036)
(0 0.000636601 1.00041)
(0 0.000542813 1.00046)
(0 0.000443129 1.0005)
(0 0.000348257 1.00053)
(0 0.000154177 1.00055)
(0 0.000121692 1.00213)
(0 0.000367832 0.998968)
(0 0.000609569 0.999037)
(0 0.000783807 0.999198)
(0 0.000907845 0.999349)
(0 0.00100282 0.999473)
(0 0.0010774 0.999573)
(0 0.00112082 0.999674)
(0 0.00112911 0.99979)
(0 0.00110664 0.999921)
(0 0.00106218 1.00005)
(0 0.00100486 1.00017)
(0 0.000940711 1.00027)
(0 0.000870786 1.00036)
(0 0.000790698 1.00043)
(0 0.000697686 1.00048)
(0 0.000595799 1.00053)
(0 0.000486102 1.00057)
(0 0.000382309 1.0006)
(0 0.000169944 1.00063)
(0 0.000274603 0.995378)
(0 0.000631078 0.998638)
(0 0.000831131 0.998905)
(0 0.00100673 0.999118)
(0 0.00109976 0.999326)
(0 0.00115665 0.999514)
(0 0.00120072 0.999663)
(0 0.00123675 0.99978)
(0 0.00125308 0.99988)
(0 0.00124013 0.99998)
(0 0.00119655 1.00009)
(0 0.00113048 1.0002)
(0 0.0010527 1.00031)
(0 0.000965815 1.00041)
(0 0.000868455 1.00049)
(0 0.000763248 1.00055)
(0 0.000650323 1.00061)
(0 0.000528589 1.00065)
(0 0.000416417 1.00068)
(0 0.000185966 1.00072)
(0 0.000285653 1.00137)
(0 0.000739496 0.998464)
(0 0.00106933 0.99868)
(0 0.00125806 0.99893)
(0 0.00134865 0.999175)
(0 0.00138088 0.999414)
(0 0.00138423 0.999636)
(0 0.00137706 0.999825)
(0 0.00136478 0.999973)
(0 0.00134347 1.00009)
(0 0.00130323 1.00019)
(0 0.00124154 1.00028)
(0 0.00116 1.00038)
(0 0.0010607 1.00047)
(0 0.000949692 1.00055)
(0 0.000831767 1.00062)
(0 0.000705258 1.00068)
(0 0.000571559 1.00073)
(0 0.000451095 1.00077)
(0 0.000202083 1.0008)
(0 0.000527124 0.994743)
(0 0.00115959 0.998089)
(0 0.00139269 0.998473)
(0 0.00154223 0.998763)
(0 0.00161078 0.999022)
(0 0.00163826 0.999272)
(0 0.00162969 0.999516)
(0 0.001591 0.999748)
(0 0.00153569 0.999953)
(0 0.0014741 1.00013)
(0 0.00140708 1.00027)
(0 0.00133394 1.00038)
(0 0.00124863 1.00047)
(0 0.00114594 1.00056)
(0 0.00102898 1.00063)
(0 0.000900615 1.0007)
(0 0.000761374 1.00077)
(0 0.000615642 1.00082)
(0 0.000486211 1.00086)
(0 0.000218435 1.00089)
(0 0.000645259 1.0005)
(0 0.00144015 0.997986)
(0 0.00171926 0.998377)
(0 0.00182475 0.998696)
(0 0.00186404 0.998976)
(0 0.00187419 0.99923)
(0 0.00185381 0.999468)
(0 0.00180491 0.999694)
(0 0.00173432 0.999909)
(0 0.00164905 1.00011)
(0 0.001552 1.00028)
(0 0.00145053 1.00043)
(0 0.0013424 1.00055)
(0 0.00122505 1.00064)
(0 0.00109965 1.00072)
(0 0.000962923 1.00079)
(0 0.000814479 1.00085)
(0 0.000658936 1.0009)
(0 0.000521413 1.00094)
(0 0.000235036 1.00099)
(0 0.00102779 0.99422)
(0 0.00206503 0.997833)
(0 0.00212778 0.99835)
(0 0.00213669 0.998715)
(0 0.00212839 0.999028)
(0 0.00210859 0.999295)
(0 0.00207026 0.999528)
(0 0.00200544 0.999737)
(0 0.00191957 0.999937)
(0 0.00181579 1.00013)
(0 0.00169898 1.00031)
(0 0.00157754 1.00047)
(0 0.00144954 1.0006)
(0 0.00131578 1.00072)
(0 0.00117563 1.00081)
(0 0.00102521 1.00088)
(0 0.000866261 1.00095)
(0 0.000700339 1.001)
(0 0.0005553 1.00104)
(0 0.000251495 1.00108)
(0 0.00134134 0.999632)
(0 0.0026077 0.997727)
(0 0.00254874 0.998307)
(0 0.00247252 0.998725)
(0 0.00240357 0.999086)
(0 0.00233247 0.999394)
(0 0.00225814 0.999655)
(0 0.00217757 0.999868)
(0 0.00208729 1.00005)
(0 0.00197733 1.00022)
(0 0.00184734 1.00038)
(0 0.00170677 1.00053)
(0 0.00155841 1.00067)
(0 0.00140655 1.00079)
(0 0.00125042 1.00089)
(0 0.00108792 1.00097)
(0 0.000918609 1.00104)
(0 0.000741187 1.00109)
(0 0.000588889 1.00113)
(0 0.000267971 1.00118)
)
;

boundaryField
{
    movingWall
    {
        type            zeroGradient;
    }
    leftSide
    {
        type            fixedValue;
        value           uniform (0 0 1);
    }
    rightSide
    {
        type            zeroGradient;
    }
    bottomWall
    {
        type            noSlip;
    }
    bottomWall2
    {
        type            zeroGradient;
    }
    frontAndBack
    {
        type            empty;
    }
}


// ************************************************************************* //
