/*--------------------------------*- C++ -*----------------------------------*\
  =========                 |
  \\      /  F ield         | OpenFOAM: The Open Source CFD Toolbox
   \\    /   O peration     | Website:  https://openfoam.org
    \\  /    A nd           | Version:  10
     \\/     M anipulation  |
\*---------------------------------------------------------------------------*/
FoamFile
{
    format      ascii;
    class       volScalarField;
    location    "0.4";
    object      p;
}
// * * * * * * * * * * * * * * * * * * * * * * * * * * * * * * * * * * * * * //

dimensions      [0 2 -2 0 0 0 0];

internalField   nonuniform List<scalar> 
1200
(
-2.7596e-10
-0.00130594
-0.00192279
-0.00239694
-0.00280758
-0.00316967
-0.00348886
-0.00377047
-0.00402153
-0.00424856
-0.00445548
-0.00464374
-0.00481362
-0.00496535
-0.00509963
-0.00521706
-0.00531855
-0.00540389
-0.00547118
-0.00553662
-0.000369151
-0.00151375
-0.0020535
-0.00251637
-0.0029272
-0.00329331
-0.00361857
-0.00390687
-0.00416201
-0.00438845
-0.00459185
-0.00477684
-0.00494604
-0.00509968
-0.00523698
-0.00535745
-0.00546141
-0.00554843
-0.00561671
-0.00568263
-0.00127982
-0.00201985
-0.00239215
-0.00278934
-0.00316499
-0.00350482
-0.00381082
-0.00408896
-0.00434169
-0.00456964
-0.00477312
-0.00495455
-0.00511733
-0.00526422
-0.00539703
-0.0055159
-0.00561996
-0.00570764
-0.00577646
-0.00584328
-0.00240224
-0.00275234
-0.00291792
-0.00321261
-0.00352408
-0.0038142
-0.00407947
-0.00432353
-0.00455274
-0.0047688
-0.00496956
-0.00515207
-0.0053146
-0.0054586
-0.0055867
-0.0057005
-0.00580039
-0.0058853
-0.005953
-0.00602005
-0.00347875
-0.00358862
-0.00358533
-0.00376558
-0.00399198
-0.00422207
-0.00444141
-0.00464607
-0.0048375
-0.00501962
-0.00519544
-0.00536384
-0.00552156
-0.0056654
-0.00579328
-0.005905
-0.0060016
-0.0060833
-0.00614852
-0.00621423
-0.00436486
-0.0043813
-0.00429059
-0.00437878
-0.00451858
-0.00468108
-0.00485439
-0.00502756
-0.00519249
-0.00534669
-0.00549147
-0.00563033
-0.00576511
-0.00589462
-0.00601539
-0.00612429
-0.00621956
-0.00629971
-0.00636296
-0.00642758
-0.00502696
-0.00504044
-0.00493692
-0.0049733
-0.00504483
-0.00514306
-0.00526384
-0.00540052
-0.00554496
-0.00568752
-0.00582187
-0.00594592
-0.00606096
-0.00616943
-0.00627228
-0.00636908
-0.00645736
-0.00653376
-0.0065953
-0.00665952
-0.00554202
-0.00558622
-0.0055184
-0.00553984
-0.00557243
-0.005621
-0.0056902
-0.00578117
-0.0058894
-0.00600892
-0.00613245
-0.00625302
-0.00636586
-0.00646869
-0.00656205
-0.00664744
-0.00672483
-0.00679309
-0.00684915
-0.00691106
-0.00599676
-0.00606952
-0.00604959
-0.0060863
-0.00611047
-0.00613441
-0.00617105
-0.00622287
-0.0062912
-0.00637373
-0.00646681
-0.00656655
-0.00666763
-0.00676562
-0.0068572
-0.00694007
-0.00701331
-0.0070766
-0.00712731
-0.00718559
-0.00639782
-0.00648144
-0.00649945
-0.00656174
-0.00659754
-0.00662561
-0.00665696
-0.00669538
-0.00674253
-0.00679801
-0.00686276
-0.00693469
-0.0070119
-0.00709196
-0.00717125
-0.00724662
-0.00731566
-0.00737641
-0.00742493
-0.00748125
-0.00675869
-0.00683604
-0.00687196
-0.00695188
-0.00700417
-0.00704398
-0.00708343
-0.0071273
-0.00717407
-0.00722473
-0.00727851
-0.00733498
-0.00739522
-0.007458
-0.00752189
-0.00758488
-0.00764467
-0.00769916
-0.00774315
-0.00779703
-0.00713477
-0.00719671
-0.00722965
-0.00731383
-0.00737479
-0.0074245
-0.00747214
-0.00751962
-0.00756991
-0.00762327
-0.00767758
-0.0077328
-0.0077879
-0.00784232
-0.00789623
-0.00794893
-0.00799973
-0.00804695
-0.00808526
-0.00813565
-0.00754857
-0.00759501
-0.00761997
-0.00769601
-0.00775667
-0.0078136
-0.00786689
-0.00791831
-0.00796883
-0.00801902
-0.00807127
-0.00812535
-0.00817999
-0.0082335
-0.00828437
-0.00833235
-0.00837758
-0.00841913
-0.00845206
-0.00849824
-0.00800148
-0.00803776
-0.00805238
-0.00811367
-0.00816854
-0.00822272
-0.00827918
-0.00833588
-0.00838927
-0.00844097
-0.00848989
-0.00853764
-0.00858553
-0.00863315
-0.00868066
-0.00872695
-0.00877047
-0.00881008
-0.00883989
-0.00888267
-0.00848204
-0.00851275
-0.0085179
-0.00856464
-0.00860486
-0.00865248
-0.00870889
-0.00876549
-0.00882249
-0.00887678
-0.0089274
-0.00897617
-0.00902103
-0.0090634
-0.00910466
-0.00914482
-0.00918403
-0.00922079
-0.00924831
-0.00928959
-0.00896747
-0.0089961
-0.00900632
-0.00904357
-0.00907091
-0.00911057
-0.00915727
-0.00921059
-0.00926606
-0.00931802
-0.00936929
-0.00941762
-0.00946283
-0.00950642
-0.00954725
-0.00958596
-0.0096228
-0.00965576
-0.00967906
-0.0097169
-0.00949534
-0.00952492
-0.00953709
-0.00956943
-0.00959178
-0.00961851
-0.00965291
-0.00969609
-0.00974156
-0.00979022
-0.00983816
-0.0098824
-0.00992493
-0.0099654
-0.0100048
-0.0100436
-0.0100798
-0.0101116
-0.0101336
-0.0101694
-0.0100516
-0.0100821
-0.0100962
-0.0101319
-0.0101498
-0.01017
-0.0101969
-0.0102245
-0.0102566
-0.0102927
-0.0103304
-0.0103716
-0.0104129
-0.0104526
-0.0104907
-0.0105256
-0.0105571
-0.0105859
-0.0106065
-0.0106421
-0.0106032
-0.0106338
-0.0106612
-0.0107034
-0.0107268
-0.01075
-0.0107689
-0.0107894
-0.010813
-0.010836
-0.0108639
-0.0108947
-0.0109273
-0.0109629
-0.0109981
-0.0110309
-0.0110612
-0.0110891
-0.0111087
-0.0111425
-0.0111915
-0.0112195
-0.0112412
-0.0112805
-0.0113121
-0.011336
-0.0113555
-0.0113766
-0.011394
-0.0114152
-0.0114389
-0.0114608
-0.0114842
-0.0115083
-0.0115327
-0.0115584
-0.0115846
-0.011611
-0.0116303
-0.0116622
-0.0117867
-0.0118105
-0.0118215
-0.0118578
-0.0118848
-0.0119123
-0.0119458
-0.0119713
-0.0119917
-0.0120122
-0.0120283
-0.0120465
-0.012067
-0.0120871
-0.0121074
-0.012127
-0.0121456
-0.0121657
-0.0121791
-0.0122066
-0.0123468
-0.0123691
-0.0123945
-0.0124304
-0.0124524
-0.0124873
-0.0125245
-0.0125581
-0.0125921
-0.0126156
-0.0126321
-0.0126475
-0.0126611
-0.0126768
-0.0126946
-0.0127117
-0.0127288
-0.0127475
-0.0127574
-0.0127814
-0.0129879
-0.0130101
-0.0130332
-0.0130579
-0.0130799
-0.013105
-0.0131268
-0.0131586
-0.0131914
-0.0132205
-0.0132503
-0.0132727
-0.0132887
-0.0133019
-0.0133116
-0.013321
-0.0133337
-0.0133486
-0.0133564
-0.0133801
-0.0137259
-0.0137456
-0.0137482
-0.0137693
-0.0137843
-0.0137897
-0.0138002
-0.0138141
-0.0138241
-0.0138438
-0.0138681
-0.0138918
-0.0139174
-0.0139382
-0.0139515
-0.0139617
-0.0139718
-0.0139805
-0.0139827
-0.0140024
-0.0144325
-0.0144489
-0.0144674
-0.0145009
-0.0145113
-0.0145221
-0.0145376
-0.014539
-0.014539
-0.0145422
-0.0145409
-0.0145464
-0.0145588
-0.0145719
-0.0145861
-0.0146015
-0.0146155
-0.0146272
-0.0146315
-0.0146489
-0.0152042
-0.0152188
-0.0152502
-0.0152708
-0.0152786
-0.0152987
-0.0153083
-0.0153098
-0.0153172
-0.0153119
-0.015301
-0.0152935
-0.0152828
-0.0152734
-0.0152697
-0.0152716
-0.0152765
-0.0152854
-0.0152906
-0.0153084
-0.0161277
-0.0161405
-0.0161328
-0.0161202
-0.0161179
-0.0161149
-0.0161001
-0.0160997
-0.016096
-0.0160824
-0.0160764
-0.0160658
-0.0160487
-0.0160314
-0.0160142
-0.0159984
-0.0159858
-0.0159797
-0.0159727
-0.0159831
-0.017023
-0.0170278
-0.0169959
-0.0169856
-0.0169711
-0.0169375
-0.0169155
-0.0169009
-0.0168701
-0.0168492
-0.016833
-0.0168115
-0.016794
-0.0167763
-0.0167574
-0.0167385
-0.0167208
-0.0167079
-0.016692
-0.0166939
-0.0178353
-0.0178304
-0.0178278
-0.0178386
-0.0178085
-0.0177761
-0.0177596
-0.0177208
-0.0176793
-0.017648
-0.0176072
-0.0175714
-0.0175398
-0.0175084
-0.0174822
-0.017459
-0.0174395
-0.0174263
-0.0174106
-0.0174103
-0.0188939
-0.0188712
-0.0188632
-0.0188289
-0.0187638
-0.0187257
-0.0186762
-0.0186089
-0.0185579
-0.0184978
-0.0184373
-0.0183846
-0.0183281
-0.0182779
-0.0182347
-0.0181953
-0.0181635
-0.0181413
-0.0181203
-0.0181167
-0.0203379
-0.0202958
-0.0201801
-0.0200322
-0.019908
-0.0198039
-0.0196803
-0.0195765
-0.0194797
-0.019379
-0.0192957
-0.0192119
-0.0191327
-0.0190657
-0.019003
-0.0189466
-0.0188999
-0.0188643
-0.0188326
-0.018822
-0.0217493
-0.0216891
-0.0214361
-0.0212102
-0.0210259
-0.0208348
-0.0206581
-0.0205097
-0.0203583
-0.0202292
-0.0201115
-0.0199979
-0.0199025
-0.0198168
-0.0197383
-0.0196711
-0.0196147
-0.019571
-0.0195321
-0.0195155
-0.0226191
-0.0225474
-0.0222447
-0.0220421
-0.0218225
-0.0216084
-0.0214311
-0.0212562
-0.0210953
-0.0209564
-0.0208205
-0.020702
-0.0205977
-0.0205009
-0.020417
-0.0203452
-0.0202839
-0.0202376
-0.0201957
-0.0201739
-0.0228616
-0.0227963
-0.0225675
-0.0224258
-0.0222232
-0.0220668
-0.0219176
-0.0217645
-0.0216343
-0.0215067
-0.0213882
-0.0212838
-0.0211847
-0.0210953
-0.021018
-0.0209492
-0.0208894
-0.0208446
-0.0208035
-0.0207772
-0.022777
-0.0227428
-0.022572
-0.0225746
-0.0223825
-0.0223157
-0.0222023
-0.0221082
-0.0220163
-0.0219224
-0.0218381
-0.0217562
-0.0216788
-0.0216092
-0.0215459
-0.0214885
-0.0214373
-0.0213986
-0.0213624
-0.021335
-0.0226965
-0.022676
-0.0226259
-0.0225956
-0.0225323
-0.0224947
-0.0224216
-0.0223871
-0.0223267
-0.0222708
-0.0222157
-0.0221604
-0.0221093
-0.0220603
-0.0220144
-0.0219728
-0.021934
-0.0219045
-0.0218765
-0.0218522
-0.0227464
-0.0227431
-0.0227346
-0.0227337
-0.0227117
-0.0227015
-0.0226738
-0.0226539
-0.0226245
-0.0225988
-0.0225643
-0.022534
-0.0225035
-0.0224723
-0.0224429
-0.0224157
-0.0223886
-0.0223679
-0.0223485
-0.0223287
-0.0229381
-0.0229402
-0.0229447
-0.0229562
-0.0229529
-0.0229591
-0.0229509
-0.0229485
-0.0229374
-0.0229277
-0.0229135
-0.0228994
-0.022883
-0.022866
-0.0228489
-0.0228326
-0.0228152
-0.0228015
-0.0227889
-0.0227738
-0.0231909
-0.0232013
-0.0232153
-0.0232339
-0.0232399
-0.0232537
-0.0232549
-0.0232619
-0.0232603
-0.0232607
-0.0232564
-0.0232517
-0.0232447
-0.023237
-0.0232276
-0.0232188
-0.0232079
-0.0231991
-0.0231913
-0.023179
-0.0234577
-0.0234725
-0.0234911
-0.0235139
-0.0235258
-0.0235446
-0.0235515
-0.0235642
-0.0235677
-0.0235742
-0.0235749
-0.0235761
-0.0235741
-0.023572
-0.0235669
-0.0235625
-0.0235557
-0.0235498
-0.0235449
-0.0235354
-0.00379983
-0.00377384
-0.0037698
-0.00378307
-0.00379701
-0.00381289
-0.00383146
-0.00385334
-0.00387873
-0.0039076
-0.00393985
-0.00397495
-0.00401202
-0.00405001
-0.00408789
-0.00412452
-0.00415866
-0.00418902
-0.00421419
-0.00423224
-0.00377307
-0.00377204
-0.00377535
-0.00378108
-0.00379124
-0.003806
-0.00382497
-0.00384804
-0.00387494
-0.00390539
-0.00393908
-0.00397554
-0.00401411
-0.00405385
-0.00409351
-0.00413167
-0.00416702
-0.0041983
-0.00422429
-0.00424376
-0.00373238
-0.00374843
-0.00375861
-0.00376221
-0.00377203
-0.00378822
-0.00380937
-0.00383522
-0.00386571
-0.00390045
-0.00393839
-0.00397847
-0.00401995
-0.00406217
-0.00410412
-0.00414457
-0.00418207
-0.00421514
-0.00424265
-0.00426386
-0.00368405
-0.0037082
-0.00372416
-0.00373091
-0.00374274
-0.0037615
-0.00378646
-0.00381674
-0.00385171
-0.0038911
-0.00393437
-0.00398051
-0.00402796
-0.00407515
-0.00412087
-0.00416424
-0.00420413
-0.00423927
-0.00426873
-0.00429199
-0.00362875
-0.00365318
-0.00367351
-0.00368862
-0.00370645
-0.00372947
-0.00375938
-0.00379611
-0.00383824
-0.00388406
-0.00393264
-0.00398354
-0.00403607
-0.00408887
-0.00414026
-0.00418853
-0.00423216
-0.00427011
-0.00430178
-0.00432718
-0.00356408
-0.00358432
-0.00360512
-0.00362877
-0.00365611
-0.00368819
-0.00372599
-0.00377005
-0.00382047
-0.00387587
-0.00393408
-0.00399295
-0.0040513
-0.00410862
-0.00416428
-0.00421689
-0.00426476
-0.00430651
-0.00434112
-0.0043691
-0.00349331
-0.00350825
-0.0035288
-0.00355777
-0.00359415
-0.00363732
-0.00368645
-0.00374109
-0.00380058
-0.00386419
-0.00393106
-0.00399954
-0.00406749
-0.00413298
-0.00419469
-0.00425165
-0.00430315
-0.0043482
-0.00438558
-0.00441637
-0.00341489
-0.00342509
-0.00344524
-0.00348007
-0.00352738
-0.00358266
-0.00364432
-0.00371189
-0.00378376
-0.00385807
-0.00393338
-0.00400905
-0.00408427
-0.00415752
-0.00422676
-0.00429027
-0.004347
-0.00439579
-0.00443586
-0.00446922
-0.00332587
-0.00333489
-0.00335413
-0.00339355
-0.00345261
-0.00352348
-0.00360125
-0.00368303
-0.00376751
-0.00385371
-0.00394022
-0.00402557
-0.00410845
-0.00418789
-0.00426277
-0.00433201
-0.00439401
-0.00444708
-0.00449055
-0.0045267
-0.00322414
-0.00323406
-0.00325701
-0.00330398
-0.00337448
-0.00346025
-0.00355463
-0.00365324
-0.00375323
-0.00385274
-0.00395062
-0.00404581
-0.00413734
-0.00422418
-0.00430531
-0.00437981
-0.00444614
-0.00450312
-0.00454969
-0.00458857
-0.00310188
-0.00311691
-0.0031503
-0.00321271
-0.00329955
-0.00340085
-0.00351007
-0.00362289
-0.00373701
-0.00385077
-0.00396214
-0.00406925
-0.00417064
-0.00426533
-0.00435282
-0.00443246
-0.00450311
-0.00456388
-0.00461306
-0.0046545
-0.00296107
-0.00298538
-0.003039
-0.00312609
-0.00323262
-0.00335145
-0.00347774
-0.00360595
-0.00373251
-0.00385602
-0.00397648
-0.00409337
-0.00420489
-0.00430899
-0.00440443
-0.00449017
-0.0045654
-0.00462956
-0.00468099
-0.00472497
-0.00279059
-0.00283176
-0.00291971
-0.00304053
-0.00317189
-0.00330929
-0.00345166
-0.0035965
-0.00373947
-0.00387683
-0.00400704
-0.0041302
-0.00424673
-0.00435643
-0.00445834
-0.00455033
-0.0046309
-0.00469894
-0.00475309
-0.00479962
-0.00257792
-0.00265102
-0.00278707
-0.00294882
-0.00311141
-0.00327171
-0.00343091
-0.00358944
-0.00374589
-0.00389767
-0.00404187
-0.00417637
-0.00430067
-0.00441554
-0.00452108
-0.00461634
-0.00470052
-0.00477181
-0.00482883
-0.0048781
-0.00232746
-0.00245476
-0.00265035
-0.00285715
-0.00305392
-0.00324074
-0.00341986
-0.00359304
-0.00376072
-0.00392239
-0.00407663
-0.00422148
-0.00435576
-0.00447886
-0.00458996
-0.004689
-0.00477606
-0.00484952
-0.00490853
-0.00496014
-0.00203755
-0.0022502
-0.00251488
-0.00276798
-0.00300084
-0.00321728
-0.00341959
-0.00360923
-0.00378836
-0.00395876
-0.00412047
-0.00427275
-0.00441451
-0.00454442
-0.00466126
-0.00476512
-0.0048557
-0.00493169
-0.00499246
-0.00504622
-0.00170424
-0.00204073
-0.00238157
-0.00268024
-0.00294876
-0.00319665
-0.00342557
-0.00363595
-0.00382942
-0.00400848
-0.00417572
-0.00433269
-0.00447917
-0.00461391
-0.00473565
-0.00484413
-0.00493829
-0.00501713
-0.00507956
-0.00513573
-0.00132838
-0.00182848
-0.00224776
-0.00259128
-0.00289576
-0.00317382
-0.00342913
-0.00366293
-0.00387548
-0.00406815
-0.00424366
-0.00440494
-0.00455369
-0.00469028
-0.00481466
-0.00492634
-0.00502359
-0.00510518
-0.00516934
-0.0052283
-0.000909172
-0.00161917
-0.00211436
-0.00250395
-0.00284489
-0.00315157
-0.00343023
-0.0036842
-0.00391516
-0.00412397
-0.00431213
-0.00448184
-0.00463532
-0.00477443
-0.00490058
-0.00501375
-0.00511255
-0.00519573
-0.0052613
-0.00532303
-0.000450778
-0.00142085
-0.00199142
-0.00242737
-0.0028054
-0.00314087
-0.00344019
-0.00370934
-0.00395321
-0.00417471
-0.00437517
-0.00455531
-0.00471663
-0.00486106
-0.00499046
-0.00510531
-0.00520523
-0.00528944
-0.00535588
-0.00541982
)
;

boundaryField
{
    movingWall
    {
        type            zeroGradient;
    }
    leftSide
    {
        type            zeroGradient;
    }
    rightSide
    {
        type            zeroGradient;
    }
    bottomWall
    {
        type            zeroGradient;
    }
    bottomWall2
    {
        type            zeroGradient;
    }
    frontAndBack
    {
        type            empty;
    }
}


// ************************************************************************* //
