/*--------------------------------*- C++ -*----------------------------------*\
  =========                 |
  \\      /  F ield         | OpenFOAM: The Open Source CFD Toolbox
   \\    /   O peration     | Website:  https://openfoam.org
    \\  /    A nd           | Version:  10
     \\/     M anipulation  |
\*---------------------------------------------------------------------------*/
FoamFile
{
    format      ascii;
    class       surfaceScalarField;
    location    "0.4";
    object      phi;
}
// * * * * * * * * * * * * * * * * * * * * * * * * * * * * * * * * * * * * * //

dimensions      [0 3 -1 0 0 0 0];

internalField   nonuniform List<scalar> 
2320
(
1.65038e-07
3.42406e-05
-3.44056e-05
1.44327e-07
3.57903e-05
-3.57695e-05
1.35963e-07
3.71354e-05
-3.7127e-05
1.30046e-07
3.85328e-05
-3.85269e-05
1.24511e-07
3.99809e-05
-3.99754e-05
1.18721e-07
4.14812e-05
-4.14754e-05
1.12768e-07
4.30356e-05
-4.30296e-05
1.06694e-07
4.46462e-05
-4.46401e-05
1.00406e-07
4.63156e-05
-4.63093e-05
9.38233e-08
4.80461e-05
-4.80395e-05
8.69305e-08
4.98399e-05
-4.9833e-05
7.98059e-08
5.16994e-05
-5.16923e-05
7.25008e-08
5.36273e-05
-5.362e-05
6.50056e-08
5.5626e-05
-5.56185e-05
5.7254e-08
5.76984e-05
-5.76907e-05
4.91858e-08
5.98471e-05
-5.98391e-05
4.07399e-08
6.20751e-05
-6.20666e-05
3.19212e-08
6.43851e-05
-6.43763e-05
2.25241e-08
6.67804e-05
-6.6771e-05
6.92647e-05
-6.92552e-05
2.2482e-07
3.40157e-05
1.93379e-07
3.58217e-05
1.72011e-07
3.71567e-05
1.59028e-07
3.85458e-05
1.48862e-07
3.99911e-05
1.39561e-07
4.14905e-05
1.30811e-07
4.30443e-05
1.22427e-07
4.46546e-05
1.1435e-07
4.63237e-05
1.06394e-07
4.8054e-05
9.83849e-08
4.98479e-05
9.01429e-08
5.17077e-05
8.16074e-08
5.36358e-05
7.27992e-08
5.56348e-05
6.37644e-08
5.77074e-05
5.45267e-08
5.98564e-05
4.50459e-08
6.20846e-05
3.52106e-08
6.4395e-05
2.51705e-08
6.67905e-05
6.92753e-05
2.66949e-07
3.37488e-05
2.40493e-07
3.58482e-05
2.15191e-07
3.7182e-05
1.93863e-07
3.85671e-05
1.76618e-07
4.00083e-05
1.63242e-07
4.15039e-05
1.51468e-07
4.30561e-05
1.40501e-07
4.46656e-05
1.30032e-07
4.63342e-05
1.19981e-07
4.80641e-05
1.10255e-07
4.98576e-05
1.00675e-07
5.17173e-05
9.10696e-08
5.36454e-05
8.12693e-08
5.56446e-05
7.12044e-08
5.77175e-05
6.08524e-08
5.98667e-05
5.0195e-08
6.20952e-05
3.92424e-08
6.44059e-05
2.80071e-08
6.68017e-05
6.9287e-05
2.89416e-07
3.34594e-05
2.7596e-07
3.58616e-05
2.50168e-07
3.72078e-05
2.25969e-07
3.85913e-05
2.05752e-07
4.00285e-05
1.88252e-07
4.15214e-05
1.73463e-07
4.30709e-05
1.6018e-07
4.46789e-05
1.47629e-07
4.63467e-05
1.35537e-07
4.80762e-05
1.23806e-07
4.98694e-05
1.12388e-07
5.17287e-05
1.01164e-07
5.36567e-05
8.99823e-08
5.56558e-05
7.87164e-08
5.77288e-05
6.72437e-08
5.98782e-05
5.54871e-08
6.2107e-05
4.34556e-08
6.44179e-05
3.10594e-08
6.68141e-05
6.92999e-05
2.97412e-07
3.3162e-05
2.95607e-07
3.58634e-05
2.75217e-07
3.72282e-05
2.52907e-07
3.86136e-05
2.31726e-07
4.00497e-05
2.12602e-07
4.15405e-05
1.95306e-07
4.30882e-05
1.79783e-07
4.46944e-05
1.6554e-07
4.6361e-05
1.51901e-07
4.80898e-05
1.38536e-07
4.98827e-05
1.25357e-07
5.17419e-05
1.12415e-07
5.36696e-05
9.96722e-08
5.56686e-05
8.70049e-08
5.77414e-05
7.4243e-08
5.9891e-05
6.12704e-08
6.212e-05
4.80058e-08
6.44312e-05
3.43475e-08
6.68278e-05
6.9314e-05
3.02783e-07
3.28592e-05
3.07372e-07
3.58588e-05
2.92576e-07
3.7243e-05
2.74333e-07
3.86319e-05
2.54617e-07
4.00694e-05
2.34913e-07
4.15602e-05
2.16088e-07
4.3107e-05
1.98604e-07
4.47119e-05
1.82476e-07
4.63771e-05
1.67485e-07
4.81048e-05
1.53095e-07
4.98971e-05
1.38878e-07
5.17561e-05
1.24597e-07
5.36839e-05
1.10229e-07
5.56829e-05
9.58896e-08
5.77558e-05
8.15946e-08
5.99053e-05
6.72567e-08
6.21343e-05
5.27019e-08
6.44458e-05
3.7777e-08
6.68427e-05
6.93294e-05
3.09441e-07
3.25497e-05
3.15057e-07
3.58532e-05
3.03868e-07
3.72542e-05
2.89894e-07
3.86459e-05
2.7283e-07
4.00865e-05
2.54346e-07
4.15787e-05
2.35744e-07
4.31256e-05
2.17372e-07
4.47302e-05
1.99514e-07
4.63949e-05
1.82441e-07
4.81219e-05
1.66309e-07
4.99132e-05
1.50942e-07
5.17715e-05
1.35919e-07
5.36989e-05
1.20874e-07
5.5698e-05
1.05565e-07
5.77711e-05
8.99266e-08
5.99209e-05
7.40282e-08
6.21502e-05
5.7895e-08
6.44619e-05
4.15102e-08
6.68591e-05
6.93462e-05
3.1957e-07
3.22302e-05
3.24699e-07
3.58481e-05
3.1302e-07
3.72659e-05
2.99837e-07
3.8659e-05
2.85697e-07
4.01006e-05
2.7026e-07
4.15942e-05
2.53185e-07
4.31427e-05
2.35425e-07
4.4748e-05
2.17443e-07
4.64129e-05
1.99438e-07
4.81399e-05
1.81562e-07
4.99311e-05
1.64009e-07
5.1789e-05
1.4696e-07
5.3716e-05
1.30364e-07
5.57146e-05
1.13973e-07
5.77875e-05
9.74985e-08
5.99374e-05
8.06987e-08
6.2167e-05
6.3418e-08
6.44792e-05
4.56325e-08
6.68769e-05
6.93645e-05
3.32101e-07
3.18981e-05
3.38817e-07
3.58414e-05
3.24527e-07
3.72802e-05
3.10667e-07
3.86729e-05
2.97003e-07
4.01143e-05
2.82469e-07
4.16087e-05
2.67096e-07
4.3158e-05
2.50453e-07
4.47646e-05
2.32996e-07
4.64304e-05
2.1522e-07
4.81577e-05
1.97195e-07
4.99491e-05
1.79007e-07
5.18072e-05
1.60653e-07
5.37343e-05
1.42225e-07
5.5733e-05
1.23829e-07
5.78059e-05
1.0549e-07
5.99557e-05
8.71044e-08
6.21854e-05
6.84961e-08
6.44978e-05
4.95098e-08
6.68958e-05
6.9384e-05
3.45274e-07
3.15528e-05
3.55474e-07
3.58312e-05
3.39204e-07
3.72965e-05
3.23701e-07
3.86884e-05
3.08822e-07
4.01292e-05
2.93765e-07
4.16238e-05
2.78368e-07
4.31734e-05
2.6246e-07
4.47805e-05
2.45725e-07
4.64471e-05
2.28077e-07
4.81753e-05
2.09855e-07
4.99674e-05
1.9131e-07
5.18257e-05
1.72524e-07
5.37531e-05
1.53536e-07
5.5752e-05
1.34251e-07
5.78252e-05
1.14643e-07
5.99753e-05
9.47145e-08
6.22053e-05
7.44465e-08
6.45181e-05
5.38252e-08
6.69165e-05
6.94051e-05
3.61172e-07
3.11916e-05
3.76731e-07
3.58156e-05
3.59188e-07
3.7314e-05
3.41492e-07
3.87061e-05
3.24772e-07
4.01459e-05
3.08534e-07
4.164e-05
2.92074e-07
4.31899e-05
2.75306e-07
4.47973e-05
2.5824e-07
4.64642e-05
2.40642e-07
4.81929e-05
2.22462e-07
4.99855e-05
2.03555e-07
5.18446e-05
1.84026e-07
5.37726e-05
1.64005e-07
5.5772e-05
1.43628e-07
5.78455e-05
1.22964e-07
5.9996e-05
1.01937e-07
6.22263e-05
8.04517e-08
6.45395e-05
5.8445e-08
6.69385e-05
6.94278e-05
3.75834e-07
3.08158e-05
3.98298e-07
3.57931e-05
3.8142e-07
3.73309e-05
3.62131e-07
3.87254e-05
3.43274e-07
4.01648e-05
3.25313e-07
4.1658e-05
3.07875e-07
4.32073e-05
2.90295e-07
4.48149e-05
2.72157e-07
4.64823e-05
2.53508e-07
4.82115e-05
2.34381e-07
5.00047e-05
2.14903e-07
5.18641e-05
1.95028e-07
5.37925e-05
1.74601e-07
5.57924e-05
1.53523e-07
5.78666e-05
1.3176e-07
6.00177e-05
1.09353e-07
6.22487e-05
8.63842e-08
6.45625e-05
6.28919e-08
6.6962e-05
6.94519e-05
3.88996e-07
3.04268e-05
4.17443e-07
3.57647e-05
4.02316e-07
3.7346e-05
3.8364e-07
3.87441e-05
3.64339e-07
4.01841e-05
3.45023e-07
4.16773e-05
3.2582e-07
4.32265e-05
3.06772e-07
4.48339e-05
2.87808e-07
4.65013e-05
2.68456e-07
4.82309e-05
2.48474e-07
5.00247e-05
2.27733e-07
5.18849e-05
2.06398e-07
5.38138e-05
1.84661e-07
5.58142e-05
1.62533e-07
5.78887e-05
1.39916e-07
6.00404e-05
1.16675e-07
6.2272e-05
9.26826e-08
6.45865e-05
6.78596e-08
6.69868e-05
6.94775e-05
4.04346e-07
3.00224e-05
4.39346e-07
3.57297e-05
4.25011e-07
3.73603e-05
4.06294e-07
3.87628e-05
3.86548e-07
4.02038e-05
3.66056e-07
4.16978e-05
3.4517e-07
4.32474e-05
3.24459e-07
4.48546e-05
3.0375e-07
4.6522e-05
2.8319e-07
4.82515e-05
2.62597e-07
5.00453e-05
2.41461e-07
5.1906e-05
2.1958e-07
5.38357e-05
1.96762e-07
5.5837e-05
1.73119e-07
5.79124e-05
1.48815e-07
6.00647e-05
1.23916e-07
6.22969e-05
9.84064e-08
6.4612e-05
7.22623e-08
6.70129e-05
6.95044e-05
4.16105e-07
2.96063e-05
4.57373e-07
3.56884e-05
4.4484e-07
3.73729e-05
4.27146e-07
3.87805e-05
4.07869e-07
4.02231e-05
3.87253e-07
4.17184e-05
3.65998e-07
4.32687e-05
3.44251e-07
4.48764e-05
3.22076e-07
4.65442e-05
2.99687e-07
4.82738e-05
2.76879e-07
5.00681e-05
2.54032e-07
5.19288e-05
2.31026e-07
5.38587e-05
2.07594e-07
5.58604e-05
1.83488e-07
5.79365e-05
1.58441e-07
6.00897e-05
1.32387e-07
6.23229e-05
1.05407e-07
6.4639e-05
7.75814e-08
6.70408e-05
6.95331e-05
4.29909e-07
2.91764e-05
4.76099e-07
3.56422e-05
4.63253e-07
3.73857e-05
4.45832e-07
3.87979e-05
4.27198e-07
4.02417e-05
4.07292e-07
4.17383e-05
3.86138e-07
4.32898e-05
3.63757e-07
4.48988e-05
3.40986e-07
4.65669e-05
3.17722e-07
4.82971e-05
2.94005e-07
5.00918e-05
2.69726e-07
5.19531e-05
2.44693e-07
5.38838e-05
2.19135e-07
5.5886e-05
1.93126e-07
5.79625e-05
1.66634e-07
6.01162e-05
1.39547e-07
6.235e-05
1.11632e-07
6.46669e-05
8.26577e-08
6.70697e-05
6.95631e-05
4.48779e-07
2.87276e-05
5.0251e-07
3.55885e-05
4.88451e-07
3.73998e-05
4.68935e-07
3.88174e-05
4.48906e-07
4.02618e-05
4.28405e-07
4.17588e-05
4.06775e-07
4.33115e-05
3.84149e-07
4.49214e-05
3.60335e-07
4.65908e-05
3.35665e-07
4.83218e-05
3.10637e-07
5.01168e-05
2.85174e-07
5.19786e-05
2.59316e-07
5.39096e-05
2.32792e-07
5.59125e-05
2.05408e-07
5.79899e-05
1.77175e-07
6.01444e-05
1.48148e-07
6.2379e-05
1.18308e-07
6.46968e-05
8.76858e-08
6.71004e-05
6.95946e-05
4.60228e-07
2.82674e-05
5.20621e-07
3.55281e-05
5.07685e-07
3.74127e-05
4.87791e-07
3.88373e-05
4.67475e-07
4.02821e-05
4.46542e-07
4.17797e-05
4.25107e-07
4.33329e-05
4.02719e-07
4.49438e-05
3.78984e-07
4.66145e-05
3.54029e-07
4.83467e-05
3.27674e-07
5.01432e-05
3.00471e-07
5.20058e-05
2.72794e-07
5.39373e-05
2.44748e-07
5.59405e-05
2.16267e-07
5.80184e-05
1.87085e-07
6.01736e-05
1.56973e-07
6.24092e-05
1.25817e-07
6.47279e-05
9.35751e-08
6.71326e-05
6.96279e-05
4.77497e-07
2.77899e-05
5.45497e-07
3.54601e-05
5.32282e-07
3.74259e-05
5.11129e-07
3.88585e-05
4.89206e-07
4.0304e-05
4.66915e-07
4.1802e-05
4.44079e-07
4.33557e-05
4.20192e-07
4.49677e-05
3.95871e-07
4.66388e-05
3.70669e-07
4.83719e-05
3.44571e-07
5.01693e-05
3.17423e-07
5.20329e-05
2.88839e-07
5.39659e-05
2.59059e-07
5.59703e-05
2.28334e-07
5.80491e-05
1.96948e-07
6.0205e-05
1.65006e-07
6.24411e-05
1.32446e-07
6.47605e-05
9.89671e-08
6.71661e-05
6.96625e-05
4.96307e-07
2.72936e-05
5.74235e-07
3.53822e-05
5.6142e-07
3.74387e-05
5.38317e-07
3.88816e-05
5.13932e-07
4.03284e-05
4.89642e-07
4.18263e-05
4.64764e-07
4.33806e-05
4.39672e-07
4.49928e-05
4.13857e-07
4.66646e-05
3.87038e-07
4.83988e-05
3.59711e-07
5.01966e-05
3.31529e-07
5.20611e-05
3.02551e-07
5.39948e-05
2.72571e-07
5.60003e-05
2.4135e-07
5.80803e-05
2.08907e-07
6.02375e-05
1.75358e-07
6.24746e-05
1.40727e-07
6.47951e-05
1.05126e-07
6.72017e-05
6.96989e-05
5.0622e-07
2.67874e-05
5.9371e-07
3.52947e-05
5.84501e-07
3.7448e-05
5.62133e-07
3.89039e-05
5.37616e-07
4.03529e-05
5.11774e-07
4.18521e-05
4.8553e-07
4.34069e-05
4.59385e-07
4.50189e-05
4.32406e-07
4.66916e-05
4.0484e-07
4.84263e-05
3.76069e-07
5.02254e-05
3.45996e-07
5.20912e-05
3.15087e-07
5.40258e-05
2.83416e-07
5.6032e-05
2.51105e-07
5.81126e-05
2.18021e-07
6.02705e-05
1.83889e-07
6.25088e-05
1.48402e-07
6.48306e-05
1.11558e-07
6.72385e-05
6.9737e-05
5.23106e-07
2.62643e-05
6.18484e-07
3.51993e-05
6.09517e-07
3.74569e-05
5.87373e-07
3.89261e-05
5.62767e-07
4.03775e-05
5.3639e-07
4.18785e-05
5.09124e-07
4.34341e-05
4.80474e-07
4.50476e-05
4.51429e-07
4.67207e-05
4.22347e-07
4.84554e-05
3.92583e-07
5.02551e-05
3.62187e-07
5.21216e-05
3.30547e-07
5.40574e-05
2.97475e-07
5.60651e-05
2.6319e-07
5.81469e-05
2.27906e-07
6.03058e-05
1.91662e-07
6.2545e-05
1.54498e-07
6.48677e-05
1.16447e-07
6.72766e-05
6.97763e-05
5.50541e-07
2.57137e-05
6.58876e-07
3.5091e-05
6.48749e-07
3.7467e-05
6.22927e-07
3.89519e-05
5.94966e-07
4.04055e-05
5.66587e-07
4.19069e-05
5.36823e-07
4.34639e-05
5.05559e-07
4.50788e-05
4.73707e-07
4.67525e-05
4.40859e-07
4.84883e-05
4.07916e-07
5.02881e-05
3.75196e-07
5.21543e-05
3.42221e-07
5.40904e-05
3.08755e-07
5.60985e-05
2.74349e-07
5.81813e-05
2.38616e-07
6.03416e-05
2.01358e-07
6.25823e-05
1.62783e-07
6.49063e-05
1.22945e-07
6.73164e-05
6.98174e-05
5.57156e-07
2.51566e-05
6.75909e-07
3.49722e-05
6.7032e-07
3.74726e-05
6.45276e-07
3.89769e-05
6.17889e-07
4.04328e-05
5.8953e-07
4.19353e-05
5.59679e-07
4.34937e-05
5.29327e-07
4.51092e-05
4.97415e-07
4.67844e-05
4.63647e-07
4.8522e-05
4.2885e-07
5.03229e-05
3.92754e-07
5.21904e-05
3.56119e-07
5.4127e-05
3.19462e-07
5.61352e-05
2.82747e-07
5.8218e-05
2.45629e-07
6.03787e-05
2.07769e-07
6.26201e-05
1.68885e-07
6.49452e-05
1.28478e-07
6.73568e-05
6.98593e-05
5.68807e-07
2.45878e-05
6.9658e-07
3.48445e-05
6.91112e-07
3.74781e-05
6.64724e-07
3.90033e-05
6.35701e-07
4.04619e-05
6.05129e-07
4.19658e-05
5.74265e-07
4.35246e-05
5.43378e-07
4.51401e-05
5.11234e-07
4.68166e-05
4.78894e-07
4.85544e-05
4.45231e-07
5.03565e-05
4.09748e-07
5.22259e-05
3.72872e-07
5.41639e-05
3.34592e-07
5.61735e-05
2.95288e-07
5.82573e-05
2.55301e-07
6.04187e-05
2.14982e-07
6.26605e-05
1.7426e-07
6.49859e-05
1.32839e-07
6.73982e-05
6.99017e-05
6.01667e-07
2.39861e-05
7.41645e-07
3.47045e-05
7.33122e-07
3.74866e-05
7.02017e-07
3.90344e-05
6.6809e-07
4.04958e-05
6.33108e-07
4.20008e-05
5.98498e-07
4.35592e-05
5.62584e-07
4.5176e-05
5.26772e-07
4.68524e-05
4.91423e-07
4.85897e-05
4.55426e-07
5.03925e-05
4.19542e-07
5.22618e-05
3.83052e-07
5.42004e-05
3.45454e-07
5.62111e-05
3.06575e-07
5.82962e-05
2.66359e-07
6.04589e-05
2.2502e-07
6.27018e-05
1.82568e-07
6.50284e-05
1.3922e-07
6.74416e-05
6.99458e-05
6.14595e-07
2.33715e-05
7.6721e-07
3.45519e-05
7.60638e-07
3.74932e-05
7.26633e-07
3.90684e-05
6.89482e-07
4.05329e-05
6.52771e-07
4.20375e-05
6.15592e-07
4.35964e-05
5.77321e-07
4.52143e-05
5.39876e-07
4.68898e-05
5.01251e-07
4.86283e-05
4.62672e-07
5.04311e-05
4.24422e-07
5.23e-05
3.85984e-07
5.42388e-05
3.47674e-07
5.62494e-05
3.0898e-07
5.83349e-05
2.6962e-07
6.04982e-05
2.29232e-07
6.27422e-05
1.87455e-07
6.50702e-05
1.44196e-07
6.74848e-05
6.99904e-05
5.96597e-07
2.27749e-05
7.56756e-07
3.43917e-05
7.57421e-07
3.74925e-05
7.27202e-07
3.90987e-05
6.92448e-07
4.05677e-05
6.57541e-07
4.20724e-05
6.20184e-07
4.36338e-05
5.83499e-07
4.52509e-05
5.45784e-07
4.69275e-05
5.06895e-07
4.86672e-05
4.68217e-07
5.04698e-05
4.28537e-07
5.23397e-05
3.88677e-07
5.42787e-05
3.4873e-07
5.62893e-05
3.08515e-07
5.83751e-05
2.68281e-07
6.05385e-05
2.2774e-07
6.27827e-05
1.86627e-07
6.51113e-05
1.44648e-07
6.75268e-05
7.00336e-05
6.04269e-07
2.21707e-05
7.68675e-07
3.42273e-05
7.65585e-07
3.74956e-05
7.30933e-07
3.91333e-05
6.93914e-07
4.06047e-05
6.55335e-07
4.2111e-05
6.16962e-07
4.36721e-05
5.79711e-07
4.52882e-05
5.40922e-07
4.69663e-05
5.03207e-07
4.87049e-05
4.65001e-07
5.0508e-05
4.26294e-07
5.23784e-05
3.87633e-07
5.43173e-05
3.48223e-07
5.63287e-05
3.08412e-07
5.84149e-05
2.68339e-07
6.05785e-05
2.27861e-07
6.28232e-05
1.87042e-07
6.51521e-05
1.45728e-07
6.75681e-05
7.00757e-05
6.40921e-07
2.15297e-05
8.15139e-07
3.40531e-05
8.03742e-07
3.7507e-05
7.58569e-07
3.91785e-05
7.11639e-07
4.06517e-05
6.64071e-07
4.21586e-05
6.20614e-07
4.37156e-05
5.76749e-07
4.53321e-05
5.34782e-07
4.70083e-05
4.94564e-07
4.87452e-05
4.54505e-07
5.0548e-05
4.15875e-07
5.2417e-05
3.77614e-07
5.43556e-05
3.39459e-07
5.63669e-05
3.01586e-07
5.84528e-05
2.63457e-07
6.06167e-05
2.2489e-07
6.28618e-05
1.85762e-07
6.51912e-05
1.45934e-07
6.7608e-05
7.01163e-05
6.18227e-07
2.09115e-05
7.90904e-07
3.38804e-05
7.77601e-07
3.75203e-05
7.30405e-07
3.92257e-05
6.79174e-07
4.07029e-05
6.32561e-07
4.22052e-05
5.88171e-07
4.376e-05
5.44844e-07
4.53754e-05
5.05118e-07
4.7048e-05
4.65706e-07
4.87846e-05
4.27838e-07
5.05859e-05
3.91253e-07
5.24536e-05
3.5508e-07
5.43918e-05
3.19753e-07
5.64022e-05
2.84808e-07
5.84877e-05
2.49799e-07
6.06517e-05
2.1466e-07
6.28969e-05
1.79046e-07
6.52268e-05
1.42781e-07
6.76442e-05
7.01534e-05
4.86017e-07
2.04255e-05
6.31128e-07
3.37353e-05
6.30856e-07
3.75206e-05
5.98617e-07
3.92579e-05
5.62211e-07
4.07393e-05
5.29352e-07
4.2238e-05
4.95049e-07
4.37943e-05
4.63901e-07
4.54065e-05
4.33088e-07
4.70788e-05
4.02356e-07
4.88153e-05
3.72949e-07
5.06153e-05
3.43482e-07
5.24831e-05
3.1424e-07
5.4421e-05
2.85177e-07
5.64313e-05
2.55801e-07
5.85171e-05
2.26171e-07
6.06813e-05
1.96298e-07
6.29268e-05
1.65899e-07
6.52572e-05
1.3494e-07
6.76752e-05
7.01847e-05
2.90182e-07
2.01353e-05
3.77745e-07
3.36477e-05
3.91031e-07
3.75073e-05
3.82079e-07
3.92669e-05
3.73367e-07
4.0748e-05
3.61395e-07
4.225e-05
3.48851e-07
4.38068e-05
3.36449e-07
4.54189e-05
3.21427e-07
4.70939e-05
3.06433e-07
4.88303e-05
2.90351e-07
5.06314e-05
2.73023e-07
5.25004e-05
2.54838e-07
5.44392e-05
2.3551e-07
5.64506e-05
2.15107e-07
5.85375e-05
1.93756e-07
6.07027e-05
1.71489e-07
6.2949e-05
1.48302e-07
6.52804e-05
1.24196e-07
6.76993e-05
7.02091e-05
1.16549e-07
2.00188e-05
1.39141e-07
3.36251e-05
1.55587e-07
3.74909e-05
1.70175e-07
3.92523e-05
1.84533e-07
4.07336e-05
1.92391e-07
4.22422e-05
2.00074e-07
4.37991e-05
2.03241e-07
4.54158e-05
2.04401e-07
4.70927e-05
2.03678e-07
4.8831e-05
2.00255e-07
5.06348e-05
1.94812e-07
5.25059e-05
1.87356e-07
5.44466e-05
1.78007e-07
5.64599e-05
1.66978e-07
5.85486e-05
1.54303e-07
6.07153e-05
1.4018e-07
6.29632e-05
1.248e-07
6.52958e-05
1.08175e-07
6.77159e-05
7.02261e-05
1.21681e-08
2.00066e-05
-2.7634e-08
3.36649e-05
-1.94074e-08
3.74826e-05
6.96623e-09
3.92259e-05
3.09982e-08
4.07096e-05
5.30118e-08
4.22201e-05
7.20154e-08
4.37801e-05
8.69143e-08
4.54009e-05
9.99932e-08
4.70796e-05
1.09499e-07
4.88215e-05
1.16213e-07
5.06281e-05
1.20427e-07
5.25017e-05
1.22188e-07
5.44449e-05
1.21693e-07
5.64604e-05
1.19082e-07
5.85512e-05
1.14466e-07
6.072e-05
1.08098e-07
6.29695e-05
1.00308e-07
6.53036e-05
9.10285e-08
6.77252e-05
7.02361e-05
-2.65413e-08
2.00331e-05
-1.03909e-07
3.37423e-05
-1.04568e-07
3.74833e-05
-7.76586e-08
3.9199e-05
-5.06334e-08
4.06826e-05
-2.59714e-08
4.21955e-05
-4.34119e-09
4.37585e-05
1.47911e-08
4.53817e-05
3.11154e-08
4.70633e-05
4.46185e-08
4.8808e-05
5.59246e-08
5.06168e-05
6.47904e-08
5.24928e-05
7.13891e-08
5.44383e-05
7.58116e-08
5.6456e-05
7.82376e-08
5.85487e-05
7.8811e-08
6.07194e-05
7.7732e-08
6.29706e-05
7.53805e-08
6.53059e-05
7.16746e-08
6.77289e-05
7.02406e-05
-3.36894e-08
2.00668e-05
-1.31529e-07
3.38401e-05
-1.41577e-07
3.74933e-05
-1.20134e-07
3.91776e-05
-9.69987e-08
4.06594e-05
-7.36414e-08
4.21721e-05
-5.29138e-08
4.37378e-05
-3.36808e-08
4.53625e-05
-1.64034e-08
4.7046e-05
-1.13282e-09
4.87927e-05
1.22978e-08
5.06034e-05
2.37773e-08
5.24813e-05
3.33897e-08
5.44287e-05
4.11544e-08
5.64482e-05
4.72238e-08
5.85427e-05
5.17095e-08
6.07149e-05
5.4637e-08
6.29677e-05
5.6399e-08
6.53042e-05
5.70159e-08
6.77283e-05
7.02412e-05
-1.81308e-08
2.0085e-05
-1.00945e-07
3.3923e-05
-1.11786e-07
3.75042e-05
-9.78316e-08
3.91636e-05
-8.26332e-08
4.06442e-05
-6.68427e-08
4.21563e-05
-5.28207e-08
4.37238e-05
-3.89708e-08
4.53486e-05
-2.65927e-08
4.70336e-05
-1.48962e-08
4.8781e-05
-4.41508e-09
5.05929e-05
4.92768e-09
5.2472e-05
1.31343e-08
5.44205e-05
2.01809e-08
5.64412e-05
2.61658e-08
5.85367e-05
3.10867e-08
6.071e-05
3.49915e-08
6.29638e-05
3.80991e-08
6.53011e-05
4.04813e-08
6.77259e-05
7.02396e-05
-1.49888e-08
2.00999e-05
-8.83927e-08
3.39964e-05
-9.93607e-08
3.75152e-05
-9.04734e-08
3.91547e-05
-7.90552e-08
4.06328e-05
-6.72261e-08
4.21445e-05
-5.59608e-08
4.37125e-05
-4.49448e-08
4.53376e-05
-3.45148e-08
4.70232e-05
-2.46142e-08
4.87711e-05
-1.53516e-08
5.05836e-05
-6.77993e-09
5.24634e-05
1.12789e-09
5.44126e-05
8.28787e-09
5.6434e-05
1.46411e-08
5.85303e-05
2.02694e-08
6.07043e-05
2.50982e-08
6.2959e-05
2.92738e-08
6.52969e-05
3.2832e-08
6.77223e-05
7.02366e-05
1.48165e-08
-1.95758e-08
-2.76804e-08
-2.73409e-08
-2.51512e-08
-2.2428e-08
-1.94716e-08
-1.61741e-08
-1.28087e-08
-9.25399e-09
-5.72222e-09
-2.14615e-09
1.3166e-09
4.68059e-09
7.89527e-09
1.09504e-08
1.38012e-08
1.64359e-08
1.89642e-08
2.98873e-09
3.45858e-05
2.93387e-09
3.58701e-05
1.79479e-09
3.72039e-05
1.28625e-09
3.85856e-05
1.14809e-09
4.00188e-05
1.17056e-09
4.15056e-05
1.2516e-09
4.30476e-05
1.35073e-09
4.46471e-05
1.44387e-09
4.63059e-05
1.51983e-09
4.80265e-05
1.58195e-09
4.98109e-05
1.63177e-09
5.16616e-05
1.65386e-09
5.35812e-05
1.62331e-09
5.5572e-05
1.52759e-09
5.76369e-05
1.37231e-09
5.97784e-05
1.16924e-09
6.19995e-05
9.28758e-10
6.43032e-05
6.4356e-10
6.66924e-05
6.91705e-05
-7.62251e-09
3.45867e-05
-3.84468e-09
3.58663e-05
6.59836e-10
3.71994e-05
2.11184e-09
3.85841e-05
2.6112e-09
4.00183e-05
3.02563e-09
4.15051e-05
3.48515e-09
4.30472e-05
3.95612e-09
4.46466e-05
4.37931e-09
4.63055e-05
4.71983e-09
4.80261e-05
4.91392e-09
4.98107e-05
4.94324e-09
5.16616e-05
4.8322e-09
5.35813e-05
4.61549e-09
5.55722e-05
4.30389e-09
5.76372e-05
3.88189e-09
5.97789e-05
3.33644e-09
6.20001e-05
2.66827e-09
6.43038e-05
1.81731e-09
6.66932e-05
6.91715e-05
3.7643e-09
3.45856e-05
2.90192e-09
3.58672e-05
2.16169e-09
3.72002e-05
3.24535e-09
3.8583e-05
4.17559e-09
4.00174e-05
4.91553e-09
4.15044e-05
5.64617e-09
4.30465e-05
6.28735e-09
4.4646e-05
6.87391e-09
4.63049e-05
7.37579e-09
4.80256e-05
7.77004e-09
4.98103e-05
7.98824e-09
5.16614e-05
7.95688e-09
5.35813e-05
7.64542e-09
5.55726e-05
7.07784e-09
5.76378e-05
6.2979e-09
5.97796e-05
5.34208e-09
6.2001e-05
4.22609e-09
6.4305e-05
2.89212e-09
6.66946e-05
6.91729e-05
-2.96145e-09
3.45845e-05
-8.62497e-10
3.58651e-05
2.18059e-09
3.71971e-05
4.02723e-09
3.85812e-05
5.69159e-09
4.00157e-05
6.9805e-09
4.15031e-05
8.12328e-09
4.30453e-05
9.13969e-09
4.46449e-05
9.97857e-09
4.63041e-05
1.05019e-08
4.80251e-05
1.07437e-08
4.98101e-05
1.07595e-08
5.16614e-05
1.05866e-08
5.35815e-05
1.01996e-08
5.55729e-05
9.53833e-09
5.76384e-05
8.5629e-09
5.97806e-05
7.28275e-09
6.20023e-05
5.70092e-09
6.43065e-05
3.94639e-09
6.66963e-05
6.91749e-05
6.48666e-09
3.45822e-05
5.36296e-09
3.58662e-05
3.68221e-09
3.71988e-05
4.98092e-09
3.85799e-05
6.97531e-09
4.00137e-05
8.92701e-09
4.15012e-05
1.0406e-08
4.30438e-05
1.17047e-08
4.46436e-05
1.27849e-08
4.6303e-05
1.36592e-08
4.80242e-05
1.41723e-08
4.98096e-05
1.42232e-08
5.16613e-05
1.38141e-08
5.35819e-05
1.30352e-08
5.55737e-05
1.19669e-08
5.76395e-05
1.06389e-08
5.97819e-05
9.02927e-09
6.20039e-05
7.12144e-09
6.43084e-05
4.97317e-09
6.66985e-05
6.91773e-05
2.35937e-10
3.45809e-05
2.87104e-09
3.58636e-05
5.29374e-09
3.71964e-05
6.77226e-09
3.85784e-05
8.83429e-09
4.00117e-05
1.11229e-08
4.14989e-05
1.32067e-08
4.30418e-05
1.47841e-08
4.46421e-05
1.58115e-08
4.6302e-05
1.64571e-08
4.80236e-05
1.68192e-08
4.98092e-05
1.69153e-08
5.16612e-05
1.66372e-08
5.35822e-05
1.58759e-08
5.55745e-05
1.46081e-08
5.76408e-05
1.29069e-08
5.97836e-05
1.08486e-08
6.2006e-05
8.50953e-09
6.43108e-05
5.93678e-09
6.67011e-05
6.91801e-05
8.77818e-09
3.45782e-05
8.85764e-09
3.58635e-05
8.56158e-09
3.71967e-05
9.93994e-09
3.8577e-05
1.183e-08
4.00098e-05
1.40736e-08
4.14966e-05
1.63008e-08
4.30395e-05
1.81636e-08
4.46402e-05
1.95765e-08
4.63006e-05
2.03741e-08
4.80228e-05
2.0537e-08
4.9809e-05
2.01537e-08
5.16616e-05
1.93758e-08
5.35829e-05
1.82748e-08
5.55756e-05
1.68208e-08
5.76422e-05
1.49524e-08
5.97855e-05
1.26438e-08
6.20083e-05
9.96066e-09
6.43135e-05
6.96998e-09
6.6704e-05
6.91834e-05
2.07477e-09
3.45762e-05
5.68698e-09
3.58599e-05
9.68486e-09
3.71927e-05
1.23008e-08
3.85744e-05
1.49463e-08
4.00071e-05
1.74811e-08
4.14941e-05
1.96934e-08
4.30373e-05
2.14457e-08
4.46384e-05
2.2697e-08
4.62993e-05
2.34979e-08
4.8022e-05
2.38393e-08
4.98087e-05
2.35953e-08
5.16619e-05
2.2706e-08
5.35838e-05
2.12168e-08
5.55771e-05
1.92597e-08
5.76442e-05
1.6921e-08
5.97878e-05
1.42424e-08
6.2011e-05
1.1232e-08
6.43165e-05
7.90041e-09
6.67074e-05
6.9187e-05
9.21669e-09
3.45736e-05
1.11548e-08
3.58579e-05
1.3074e-08
3.71908e-05
1.62042e-08
3.85713e-05
1.90505e-08
4.00043e-05
2.15476e-08
4.14916e-05
2.37922e-08
4.30351e-05
2.56274e-08
4.46366e-05
2.68437e-08
4.62981e-05
2.73193e-08
4.80215e-05
2.71473e-08
4.98089e-05
2.6492e-08
5.16625e-05
2.54004e-08
5.35849e-05
2.38228e-08
5.55787e-05
2.17175e-08
5.76463e-05
1.90861e-08
5.97905e-05
1.60167e-08
6.20141e-05
1.25726e-08
6.43199e-05
8.82942e-09
6.67111e-05
6.91911e-05
3.38966e-09
3.45713e-05
8.36706e-09
3.5853e-05
1.45038e-08
3.71846e-05
1.94857e-08
3.85663e-05
2.32785e-08
4.00005e-05
2.60405e-08
4.14888e-05
2.80296e-08
4.30331e-05
2.94791e-08
4.46352e-05
3.0514e-08
4.62971e-05
3.10475e-08
4.8021e-05
3.09097e-08
4.9809e-05
3.00198e-08
5.16634e-05
2.84572e-08
5.35865e-05
2.63724e-08
5.55807e-05
2.3848e-08
5.76488e-05
2.09077e-08
5.97934e-05
1.7563e-08
6.20174e-05
1.38296e-08
6.43237e-05
9.7474e-09
6.67152e-05
6.91955e-05
9.63252e-09
3.45681e-05
1.32218e-08
3.58494e-05
1.80766e-08
3.71798e-05
2.33793e-08
3.8561e-05
2.76825e-08
3.99962e-05
3.08808e-08
4.14856e-05
3.30717e-08
4.30309e-05
3.43848e-08
4.46339e-05
3.48629e-08
4.62966e-05
3.4687e-08
4.80211e-05
3.40081e-08
4.98097e-05
3.28811e-08
5.16645e-05
3.12395e-08
5.35881e-05
2.90058e-08
5.5583e-05
2.61788e-08
5.76516e-05
2.28536e-08
5.97967e-05
1.91153e-08
6.20211e-05
1.50146e-08
6.43278e-05
1.05872e-08
6.67196e-05
6.92003e-05
5.58456e-09
3.45649e-05
1.30382e-08
3.58419e-05
2.16305e-08
3.71712e-05
2.781e-08
3.85548e-05
3.24473e-08
3.99916e-05
3.5631e-08
4.14825e-05
3.7672e-08
4.30288e-05
3.88921e-08
4.46326e-05
3.93963e-08
4.62961e-05
3.91149e-08
4.80214e-05
3.80053e-08
4.98108e-05
3.61848e-08
5.16664e-05
3.38001e-08
5.35905e-05
3.10392e-08
5.55857e-05
2.79328e-08
5.76547e-05
2.44518e-08
5.98002e-05
2.05415e-08
6.2025e-05
1.61798e-08
6.43321e-05
1.14206e-08
6.67244e-05
6.92054e-05
1.18243e-08
3.45601e-05
1.97368e-08
3.5834e-05
2.64836e-08
3.71644e-05
3.25731e-08
3.85487e-05
3.72225e-08
3.99869e-05
4.0504e-08
4.14792e-05
4.24912e-08
4.30269e-05
4.32886e-08
4.46318e-05
4.31824e-08
4.62962e-05
4.24535e-08
4.80222e-05
4.11543e-08
4.98121e-05
3.92478e-08
5.16683e-05
3.6773e-08
5.3593e-05
3.36999e-08
5.55888e-05
3.01142e-08
5.76583e-05
2.61488e-08
5.98042e-05
2.18302e-08
6.20294e-05
1.7176e-08
6.43368e-05
1.2143e-08
6.67294e-05
6.92108e-05
1.07043e-08
3.45537e-05
2.25358e-08
3.58222e-05
3.22377e-08
3.71547e-05
3.82626e-08
3.85427e-05
4.22561e-08
3.99829e-05
4.50808e-08
4.14764e-05
4.70036e-08
4.30249e-05
4.78468e-08
4.4631e-05
4.74944e-08
4.62965e-05
4.61161e-08
4.80235e-05
4.40972e-08
4.98141e-05
4.16667e-08
5.16707e-05
3.88615e-08
5.35958e-05
3.56423e-08
5.5592e-05
3.19675e-08
5.7662e-05
2.78139e-08
5.98083e-05
2.32075e-08
6.2034e-05
1.82345e-08
6.43417e-05
1.28674e-08
6.67348e-05
6.92165e-05
1.97294e-08
3.45436e-05
3.20019e-08
3.58099e-05
3.94735e-08
3.71473e-05
4.45445e-08
3.85376e-05
4.78243e-08
3.99796e-05
5.02388e-08
4.14739e-05
5.15091e-08
4.30237e-05
5.16765e-08
4.46308e-05
5.10192e-08
4.62972e-05
4.96315e-08
4.80249e-05
4.75468e-08
4.98162e-05
4.48085e-08
5.16734e-05
4.15004e-08
5.35991e-05
3.77317e-08
5.55958e-05
3.36053e-08
5.76661e-05
2.91167e-08
5.98128e-05
2.42722e-08
6.20388e-05
1.91023e-08
6.43469e-05
1.35332e-08
6.67404e-05
6.92225e-05
2.29748e-08
3.45299e-05
3.82799e-08
3.57946e-05
4.70194e-08
3.71385e-05
5.05536e-08
3.85341e-05
5.36347e-08
3.99766e-05
5.55361e-08
4.1472e-05
5.62268e-08
4.3023e-05
5.59148e-08
4.46311e-05
5.47089e-08
4.62984e-05
5.27516e-08
4.80269e-05
5.01817e-08
4.98188e-05
4.7117e-08
5.16765e-05
4.36096e-08
5.36026e-05
3.96719e-08
5.55997e-05
3.53185e-08
5.76705e-05
3.05307e-08
5.98176e-05
2.53751e-08
6.2044e-05
1.99037e-08
6.43524e-05
1.41119e-08
6.67461e-05
6.92287e-05
3.72653e-08
3.45099e-05
5.10011e-08
3.57809e-05
5.43109e-08
3.71352e-05
5.81156e-08
3.85303e-05
6.04201e-08
3.99743e-05
6.11994e-08
4.14713e-05
6.09266e-08
4.30232e-05
5.991e-08
4.46322e-05
5.82919e-08
4.63e-05
5.60694e-08
4.80291e-05
5.32065e-08
4.98216e-05
4.97239e-08
5.168e-05
4.57263e-08
5.36066e-05
4.13482e-08
5.56041e-05
3.66509e-08
5.76752e-05
3.1626e-08
5.98226e-05
2.62803e-08
6.20493e-05
2.06146e-08
6.43581e-05
1.4681e-08
6.67521e-05
6.92351e-05
4.7204e-08
3.44837e-05
5.75518e-08
3.57705e-05
6.2935e-08
3.71298e-05
6.59869e-08
3.85272e-05
6.70872e-08
3.99732e-05
6.6863e-08
4.14715e-05
6.57126e-08
4.30244e-05
6.38621e-08
4.4634e-05
6.14414e-08
4.63024e-05
5.8579e-08
4.8032e-05
5.53214e-08
4.98249e-05
5.16627e-08
5.16836e-05
4.75741e-08
5.36107e-05
4.305e-08
5.56086e-05
3.81002e-08
5.76801e-05
3.27872e-08
5.9828e-05
2.7159e-08
6.20549e-05
2.12243e-08
6.4364e-05
1.51394e-08
6.67582e-05
6.92417e-05
6.84251e-08
3.44484e-05
7.10645e-08
3.57679e-05
7.33323e-08
3.71276e-05
7.45066e-08
3.85261e-05
7.4181e-08
3.99735e-05
7.27764e-08
4.14729e-05
7.06419e-08
4.30265e-05
6.79953e-08
4.46366e-05
6.4946e-08
4.63055e-05
6.15114e-08
4.80354e-05
5.76886e-08
4.98287e-05
5.35079e-08
5.16878e-05
4.89968e-08
5.36152e-05
4.41899e-08
5.56134e-05
3.90744e-08
5.76852e-05
3.36639e-08
5.98334e-05
2.79387e-08
6.20607e-05
2.18269e-08
6.43701e-05
1.56229e-08
6.67644e-05
6.92485e-05
8.53596e-08
8.36866e-08
8.42248e-08
8.33869e-08
8.14882e-08
7.893e-08
7.58555e-08
7.23622e-08
6.85266e-08
6.44392e-08
6.01505e-08
5.56435e-08
5.08654e-08
4.57737e-08
4.03524e-08
3.46482e-08
2.86791e-08
2.2464e-08
1.57984e-08
)
;

boundaryField
{
    movingWall
    {
        type            calculated;
        value           nonuniform List<scalar> 
60
(
1.30162e-08
1.4555e-08
1.6271e-08
1.81723e-08
2.02285e-08
2.23898e-08
2.47335e-08
2.73487e-08
2.99494e-08
3.27328e-08
3.58078e-08
3.87941e-08
4.22489e-08
4.53272e-08
4.89442e-08
5.2638e-08
5.61667e-08
6.02425e-08
6.43573e-08
6.87161e-08
7.34706e-08
7.71828e-08
8.18608e-08
8.65765e-08
9.0462e-08
9.50868e-08
9.95558e-08
1.01497e-07
1.03632e-07
1.05273e-07
1.05728e-07
1.03671e-07
9.97915e-08
9.11574e-08
8.09898e-08
6.71623e-08
5.65041e-08
4.20708e-08
3.57526e-08
2.1447e-08
2.22817e-10
8.22888e-10
1.41519e-09
1.9928e-09
2.57991e-09
3.11879e-09
3.70307e-09
4.24976e-09
4.78444e-09
5.31965e-09
5.80687e-09
6.2956e-09
6.74024e-09
7.16192e-09
7.57602e-09
7.91724e-09
8.2679e-09
8.54037e-09
8.84679e-09
9.08218e-09
)
;
    }
    leftSide
    {
        type            calculated;
        value           nonuniform List<scalar> 
20
(
-3.4585e-05
-3.587e-05
-3.72028e-05
-3.85851e-05
-4.00187e-05
-4.15056e-05
-4.30477e-05
-4.46472e-05
-4.6306e-05
-4.80265e-05
-4.9811e-05
-5.16617e-05
-5.35812e-05
-5.5572e-05
-5.76368e-05
-5.97783e-05
-6.19993e-05
-6.43029e-05
-6.66921e-05
-6.91701e-05
)
;
    }
    rightSide
    {
        type            calculated;
        value           nonuniform List<scalar> 
20
(
2.00851e-05
3.40308e-05
3.75233e-05
3.91544e-05
4.06306e-05
4.21418e-05
4.37095e-05
4.53343e-05
4.70198e-05
4.87676e-05
5.05801e-05
5.24598e-05
5.44091e-05
5.64307e-05
5.85271e-05
6.07013e-05
6.29561e-05
6.52943e-05
6.77198e-05
7.02342e-05
)
;
    }
    bottomWall
    {
        type            calculated;