/*--------------------------------*- C++ -*----------------------------------*\
  =========                 |
  \\      /  F ield         | OpenFOAM: The Open Source CFD Toolbox
   \\    /   O peration     | Website:  https://openfoam.org
    \\  /    A nd           | Version:  10
     \\/     M anipulation  |
\*---------------------------------------------------------------------------*/
FoamFile
{
    format      ascii;
    class       volVectorField;
    location    "0.4";
    object      U;
}
// * * * * * * * * * * * * * * * * * * * * * * * * * * * * * * * * * * * * * //

dimensions      [0 1 -1 0 0 0 0];

internalField   nonuniform List<vector> 
1200
(
(0 0.00209941 0.992355)
(0 0.00373615 0.99754)
(0 0.00317993 0.998168)
(0 0.00294171 0.998631)
(0 0.00279809 0.999032)
(0 0.0026643 0.999378)
(0 0.00253272 0.999679)
(0 0.00240102 0.999936)
(0 0.00226535 1.00016)
(0 0.00212393 1.00036)
(0 0.00197408 1.00054)
(0 0.00181873 1.00069)
(0 0.00165999 1.00083)
(0 0.00149833 1.00095)
(0 0.00133298 1.00104)
(0 0.00116034 1.00112)
(0 0.000978467 1.00119)
(0 0.000788335 1.00124)
(0 0.000628227 1.00128)
(0 0.00028735 1.00133)
(0 0.0029634 0.984902)
(0 0.00499004 0.997636)
(0 0.0038672 0.998236)
(0 0.00349412 0.998689)
(0 0.00326206 0.999084)
(0 0.00305961 0.999436)
(0 0.00286621 0.999742)
(0 0.00267926 1.00001)
(0 0.00250281 1.00023)
(0 0.00233222 1.00042)
(0 0.0021638 1.00059)
(0 0.0019917 1.00074)
(0 0.00181339 1.00087)
(0 0.00162909 1.00099)
(0 0.00143991 1.0011)
(0 0.00124607 1.00118)
(0 0.00104679 1.00125)
(0 0.000841716 1.00131)
(0 0.000673387 1.00135)
(0 0.000309827 1.0014)
(0 0.0036165 0.977764)
(0 0.00594908 0.998092)
(0 0.00447052 0.998652)
(0 0.00402116 0.999042)
(0 0.00372521 0.999406)
(0 0.00346411 0.99973)
(0 0.00321558 1.00002)
(0 0.00298114 1.00028)
(0 0.00275538 1.00051)
(0 0.00254252 1.00071)
(0 0.00234053 1.00088)
(0 0.00214544 1.00102)
(0 0.00195197 1.00114)
(0 0.00175443 1.00125)
(0 0.0015516 1.00134)
(0 0.0013425 1.00143)
(0 0.00112684 1.0015)
(0 0.000904202 1.00156)
(0 0.000723463 1.0016)
(0 0.000333946 1.00165)
(0 0.00395809 0.970476)
(0 0.00649293 0.998544)
(0 0.00491125 0.999071)
(0 0.0044876 0.999359)
(0 0.00414901 0.999656)
(0 0.00383344 0.999927)
(0 0.00354816 1.00017)
(0 0.00327953 1.00039)
(0 0.0030245 1.0006)
(0 0.00277851 1.00079)
(0 0.0025408 1.00097)
(0 0.0023135 1.00112)
(0 0.00209198 1.00124)
(0 0.00187356 1.00135)
(0 0.00165482 1.00144)
(0 0.00143154 1.00151)
(0 0.00120176 1.00158)
(0 0.00096373 1.00163)
(0 0.000774113 1.00168)
(0 0.000359579 1.00172)
(0 0.00405838 0.962924)
(0 0.00663604 0.999211)
(0 0.00511711 0.999852)
(0 0.00482896 1.00003)
(0 0.00449147 1.00025)
(0 0.00414355 1.00046)
(0 0.00381744 1.00066)
(0 0.00352697 1.00084)
(0 0.00326066 1.001)
(0 0.00300246 1.00115)
(0 0.00274755 1.00129)
(0 0.00249346 1.00143)
(0 0.00224412 1.00156)
(0 0.00200191 1.00167)
(0 0.0017634 1.00176)
(0 0.00152364 1.00183)
(0 0.00127866 1.00189)
(0 0.00102558 1.00195)
(0 0.000826716 1.00199)
(0 0.000385824 1.00203)
(0 0.0040577 0.954819)
(0 0.00660448 0.999574)
(0 0.00517966 1.00044)
(0 0.00504377 1.00052)
(0 0.00475508 1.00065)
(0 0.0044058 1.0008)
(0 0.00406083 1.00096)
(0 0.00373744 1.00111)
(0 0.00344065 1.00125)
(0 0.00317173 1.00136)
(0 0.00291502 1.00147)
(0 0.00266053 1.00156)
(0 0.00240184 1.00166)
(0 0.00213934 1.00175)
(0 0.00187631 1.00184)
(0 0.00161459 1.00192)
(0 0.0013524 1.00198)
(0 0.00108426 1.00203)
(0 0.000877339 1.00207)
(0 0.000411728 1.00212)
(0 0.00401044 0.946152)
(0 0.00649145 0.9999)
(0 0.00513735 1.00121)
(0 0.0051571 1.00126)
(0 0.00491234 1.00132)
(0 0.00459352 1.0014)
(0 0.00426622 1.00151)
(0 0.00394012 1.00163)
(0 0.00362735 1.00175)
(0 0.00332584 1.00187)
(0 0.00304205 1.00197)
(0 0.00277489 1.00205)
(0 0.00251553 1.00212)
(0 0.00225648 1.00219)
(0 0.00199043 1.00225)
(0 0.00171701 1.0023)
(0 0.00143655 1.00236)
(0 0.00114783 1.00241)
(0 0.000929909 1.00245)
(0 0.000438602 1.00249)
(0 0.00400232 0.936995)
(0 0.0064124 0.999773)
(0 0.00509008 1.00159)
(0 0.00520001 1.00163)
(0 0.00499654 1.00165)
(0 0.00471288 1.00168)
(0 0.00440936 1.00173)
(0 0.00410862 1.0018)
(0 0.00380694 1.00189)
(0 0.00350556 1.00199)
(0 0.00320575 1.00209)
(0 0.00290902 1.00218)
(0 0.0026211 1.00226)
(0 0.00234125 1.00233)
(0 0.00206607 1.00238)
(0 0.00179064 1.00243)
(0 0.0015066 1.00247)
(0 0.00121014 1.0025)
(0 0.000986593 1.00253)
(0 0.000467556 1.00258)
(0 0.00400959 0.927487)
(0 0.00641755 0.999803)
(0 0.0050891 1.00232)
(0 0.00523415 1.0024)
(0 0.00503391 1.00241)
(0 0.00476188 1.00241)
(0 0.00448958 1.00242)
(0 0.00421075 1.00244)
(0 0.00392827 1.00248)
(0 0.00364252 1.00253)
(0 0.00335169 1.00259)
(0 0.00305938 1.00266)
(0 0.00276307 1.00273)
(0 0.00246439 1.00279)
(0 0.00216649 1.00285)
(0 0.00186895 1.0029)
(0 0.00156787 1.00294)
(0 0.00125817 1.00298)
(0 0.00103212 1.003)
(0 0.000493615 1.00304)
(0 0.00403655 0.917523)
(0 0.00644908 0.999309)
(0 0.00512801 1.00255)
(0 0.0052894 1.00268)
(0 0.00505936 1.0027)
(0 0.00478988 1.00271)
(0 0.00452255 1.00272)
(0 0.00425876 1.00273)
(0 0.00399691 1.00275)
(0 0.00372151 1.00277)
(0 0.00343993 1.0028)
(0 0.00315069 1.00284)
(0 0.00285716 1.00287)
(0 0.00256192 1.00291)
(0 0.00226235 1.00295)
(0 0.00195714 1.00299)
(0 0.00164341 1.00303)
(0 0.00131776 1.00306)
(0 0.00108312 1.00309)
(0 0.000520272 1.00312)
(0 0.00409191 0.907199)
(0 0.00654458 0.998945)
(0 0.00524832 1.00308)
(0 0.00538945 1.00327)
(0 0.00513769 1.00331)
(0 0.00485902 1.00334)
(0 0.00458831 1.00336)
(0 0.00432681 1.00339)
(0 0.00405762 1.0034)
(0 0.0037897 1.00343)
(0 0.00351709 1.00345)
(0 0.00323321 1.00347)
(0 0.00294245 1.00349)
(0 0.00264146 1.00351)
(0 0.00233438 1.00354)
(0 0.00202286 1.00357)
(0 0.0017033 1.00359)
(0 0.00136981 1.00361)
(0 0.00113371 1.00363)
(0 0.000548863 1.00367)
(0 0.00410603 0.896372)
(0 0.00663382 0.998101)
(0 0.00537729 1.00317)
(0 0.00552411 1.00339)
(0 0.00523044 1.00344)
(0 0.00492764 1.00347)
(0 0.00466583 1.00349)
(0 0.00440437 1.00351)
(0 0.00413932 1.00354)
(0 0.00386676 1.00357)
(0 0.00358074 1.00359)
(0 0.00329526 1.00361)
(0 0.00300626 1.00363)
(0 0.00271033 1.00364)
(0 0.00240674 1.00366)
(0 0.00209102 1.00367)
(0 0.00176296 1.00369)
(0 0.00141718 1.00371)
(0 0.00117674 1.00372)
(0 0.000573435 1.00375)
(0 0.00411613 0.885365)
(0 0.00665959 0.997517)
(0 0.00547488 1.00374)
(0 0.00564392 1.00404)
(0 0.00532587 1.00409)
(0 0.00502246 1.00413)
(0 0.00474455 1.00416)
(0 0.00448039 1.00419)
(0 0.00422291 1.00421)
(0 0.00395211 1.00423)
(0 0.00367226 1.00425)
(0 0.00338015 1.00427)
(0 0.00307701 1.00429)
(0 0.00276905 1.00431)
(0 0.00245678 1.00433)
(0 0.00213913 1.00434)
(0 0.00181159 1.00435)
(0 0.00146207 1.00435)
(0 0.0012245 1.00436)
(0 0.000602197 1.00439)
(0 0.0041146 0.873845)
(0 0.00672131 0.996432)
(0 0.00559893 1.00382)
(0 0.0057652 1.00415)
(0 0.00544427 1.0042)
(0 0.0051235 1.00424)
(0 0.00483796 1.00428)
(0 0.00456888 1.00431)
(0 0.00429205 1.00433)
(0 0.00401959 1.00436)
(0 0.00374117 1.00437)
(0 0.00345595 1.00438)
(0 0.00316101 1.00439)
(0 0.00285043 1.00439)
(0 0.00252869 1.00441)
(0 0.00219837 1.00442)
(0 0.00185789 1.00443)
(0 0.00149592 1.00444)
(0 0.00125746 1.00445)
(0 0.000623142 1.00447)
(0 0.00406252 0.862034)
(0 0.00671283 0.995623)
(0 0.00564467 1.00451)
(0 0.00586735 1.00493)
(0 0.00553788 1.00497)
(0 0.00521871 1.005)
(0 0.0049473 1.00504)
(0 0.00466473 1.00507)
(0 0.0043904 1.0051)
(0 0.00410531 1.00512)
(0 0.00380591 1.00514)
(0 0.00351008 1.00515)
(0 0.00320482 1.00516)
(0 0.00289695 1.00516)
(0 0.00258371 1.00516)
(0 0.00225706 1.00516)
(0 0.0019152 1.00516)
(0 0.00154415 1.00517)
(0 0.00130184 1.00517)
(0 0.000649127 1.0052)
(0 0.00406878 0.849806)
(0 0.00668587 0.99416)
(0 0.00568922 1.00451)
(0 0.00591244 1.00502)
(0 0.00559017 1.00505)
(0 0.00531218 1.00509)
(0 0.00503376 1.00512)
(0 0.00475585 1.00515)
(0 0.00448189 1.00519)
(0 0.00418494 1.0052)
(0 0.00389635 1.00522)
(0 0.00359376 1.00524)
(0 0.00327601 1.00525)
(0 0.00295491 1.00525)
(0 0.0026253 1.00526)
(0 0.00229137 1.00526)
(0 0.00194823 1.00526)
(0 0.00157292 1.00526)
(0 0.00133664 1.00526)
(0 0.000673372 1.00528)
(0 0.00405835 0.837149)
(0 0.00677737 0.993062)
(0 0.00581085 1.00527)
(0 0.00599583 1.0059)
(0 0.00568462 1.00594)
(0 0.00539551 1.00596)
(0 0.00512675 1.00597)
(0 0.0048676 1.006)
(0 0.00457038 1.00602)
(0 0.00427153 1.00604)
(0 0.00396887 1.00605)
(0 0.00365449 1.00606)
(0 0.00334319 1.00606)
(0 0.00302351 1.00606)
(0 0.00269372 1.00606)
(0 0.00235542 1.00607)
(0 0.00199982 1.00607)
(0 0.00160719 1.00607)
(0 0.00136667 1.00607)
(0 0.000693187 1.00609)
(0 0.0039964 0.823927)
(0 0.00674043 0.991249)
(0 0.00581 1.00534)
(0 0.00602699 1.00613)
(0 0.00570203 1.00615)
(0 0.00542052 1.00615)
(0 0.00518514 1.00616)
(0 0.00491927 1.00616)
(0 0.00464572 1.00616)
(0 0.00435609 1.00617)
(0 0.00403999 1.00617)
(0 0.00372058 1.00618)
(0 0.00339247 1.00618)
(0 0.00306267 1.00618)
(0 0.00273454 1.00618)
(0 0.00239747 1.00618)
(0 0.00204131 1.00617)
(0 0.00164465 1.00616)
(0 0.0014054 1.00616)
(0 0.000717418 1.00617)
(0 0.00401409 0.810529)
(0 0.00675743 0.98971)
(0 0.00590534 1.00602)
(0 0.0060849 1.00704)
(0 0.00573368 1.00708)
(0 0.0054784 1.0071)
(0 0.00521905 1.00709)
(0 0.00495692 1.00709)
(0 0.00468988 1.00709)
(0 0.00439087 1.00708)
(0 0.00410044 1.00708)
(0 0.00379258 1.00707)
(0 0.00346721 1.00706)
(0 0.00313511 1.00706)
(0 0.00279048 1.00706)
(0 0.00243572 1.00706)
(0 0.00206952 1.00706)
(0 0.00166452 1.00705)
(0 0.00143198 1.00705)
(0 0.000739441 1.00706)
(0 0.00396483 0.796286)
(0 0.00684924 0.987425)
(0 0.00603712 1.00605)
(0 0.00617369 1.00724)
(0 0.0058235 1.00731)
(0 0.00552351 1.00731)
(0 0.00525403 1.0073)
(0 0.00501485 1.0073)
(0 0.00472291 1.00728)
(0 0.00443551 1.00728)
(0 0.00413866 1.00727)
(0 0.00381848 1.00725)
(0 0.00350436 1.00723)
(0 0.00318017 1.00721)
(0 0.00284232 1.00719)
(0 0.00249178 1.00718)
(0 0.00212189 1.00717)
(0 0.00170491 1.00717)
(0 0.00146811 1.00716)
(0 0.000761742 1.00718)
(0 0.00387304 0.781904)
(0 0.00679082 0.985431)
(0 0.00604156 1.00673)
(0 0.00624761 1.00823)
(0 0.00588115 1.0083)
(0 0.00555176 1.00828)
(0 0.00531005 1.0083)
(0 0.00503237 1.00829)
(0 0.00475289 1.00828)
(0 0.00448405 1.00827)
(0 0.00417198 1.00825)
(0 0.00385535 1.00823)
(0 0.00352978 1.00821)
(0 0.00319185 1.00819)
(0 0.00285333 1.00817)
(0 0.0025063 1.00815)
(0 0.00214264 1.00813)
(0 0.00173003 1.00811)
(0 0.00150179 1.0081)
(0 0.000785601 1.0081)
(0 0.00390722 0.766958)
(0 0.00674442 0.982478)
(0 0.00610496 1.00646)
(0 0.00630678 1.00831)
(0 0.00591419 1.00841)
(0 0.00565164 1.00845)
(0 0.00538294 1.00846)
(0 0.00507678 1.00847)
(0 0.00480079 1.00848)
(0 0.00449404 1.00847)
(0 0.00418903 1.00845)
(0 0.00389054 1.00842)
(0 0.00356971 1.00839)
(0 0.00323905 1.00836)
(0 0.00289377 1.00834)
(0 0.00253075 1.00832)
(0 0.0021584 1.0083)
(0 0.0017381 1.00829)
(0 0.00151003 1.00827)
(0 0.000796191 1.00827)
(0 0.00388797 0.751454)
(0 0.00692025 0.979943)
(0 0.0063254 1.00711)
(0 0.00641498 1.00928)
(0 0.00605448 1.00943)
(0 0.00577807 1.00945)
(0 0.00547102 1.00944)
(0 0.0051934 1.00946)
(0 0.00487438 1.00947)
(0 0.0045296 1.00947)
(0 0.00420952 1.00947)
(0 0.00388047 1.00945)
(0 0.00355754 1.00942)
(0 0.00323965 1.00939)
(0 0.00290426 1.00935)
(0 0.0025524 1.00931)
(0 0.00219078 1.00928)
(0 0.00176617 1.00926)
(0 0.00153524 1.00924)
(0 0.000814898 1.00925)
(0 0.00372471 0.735192)
(0 0.00684945 0.976505)
(0 0.00626 1.00703)
(0 0.00641267 1.00966)
(0 0.00608179 1.00982)
(0 0.005756 1.00979)
(0 0.00550909 1.00977)
(0 0.00524969 1.00976)
(0 0.00492469 1.00972)
(0 0.00461602 1.00971)
(0 0.00428311 1.00969)
(0 0.00392698 1.00967)
(0 0.00358492 1.00966)
(0 0.00323601 1.00964)
(0 0.00288196 1.0096)
(0 0.00253352 1.00957)
(0 0.00218251 1.00953)
(0 0.0017601 1.0095)
(0 0.00154497 1.00947)
(0 0.000831411 1.00946)
(0 0.00374766 0.71933)
(0 0.0067174 0.973414)
(0 0.00623316 1.00748)
(0 0.0064322 1.01067)
(0 0.00600518 1.01088)
(0 0.0057023 1.01088)
(0 0.0054783 1.01089)
(0 0.00516831 1.01085)
(0 0.00487715 1.01081)
(0 0.00460153 1.01078)
(0 0.0042734 1.01072)
(0 0.00395796 1.01068)
(0 0.00363086 1.01065)
(0 0.0032715 1.01061)
(0 0.00290616 1.01058)
(0 0.0025479 1.01055)
(0 0.00218349 1.01053)
(0 0.00174678 1.0105)
(0 0.001539 1.01048)
(0 0.000838211 1.01047)
(0 0.00379465 0.702126)
(0 0.0068635 0.969211)
(0 0.00648783 1.00724)
(0 0.00653965 1.01097)
(0 0.00607558 1.01125)
(0 0.00581737 1.01129)
(0 0.00550647 1.01128)
(0 0.00515941 1.01124)
(0 0.00488392 1.01124)
(0 0.00454277 1.01118)
(0 0.00421059 1.01112)
(0 0.00391697 1.01106)
(0 0.00359102 1.01099)
(0 0.0032517 1.01092)
(0 0.00291058 1.01086)
(0 0.0025659 1.01081)
(0 0.00220336 1.01077)
(0 0.00176341 1.01074)
(0 0.00155466 1.01071)
(0 0.000850304 1.0107)
(0 0.00355885 0.684571)
(0 0.00692272 0.965671)
(0 0.00651761 1.008)
(0 0.00647363 1.0123)
(0 0.00610774 1.01259)
(0 0.00580108 1.01259)
(0 0.00542725 1.0125)
(0 0.00515451 1.01248)
(0 0.00483802 1.01243)
(0 0.00445344 1.01235)
(0 0.0041532 1.0123)
(0 0.00382589 1.01222)
(0 0.00348556 1.01215)
(0 0.00315635 1.01207)
(0 0.00282899 1.01198)
(0 0.00250198 1.01191)
(0 0.00216074 1.01183)
(0 0.00174074 1.01178)
(0 0.0015511 1.01173)
(0 0.000858622 1.01171)
(0 0.00331406 0.666725)
(0 0.0066004 0.960821)
(0 0.0061547 1.00764)
(0 0.00628223 1.01276)
(0 0.00595178 1.01312)
(0 0.00556834 1.01304)
(0 0.00529157 1.01296)
(0 0.00506512 1.01292)
(0 0.00466825 1.01279)
(0 0.00436876 1.01272)
(0 0.00406823 1.01264)
(0 0.00371918 1.01254)
(0 0.00339613 1.01246)
(0 0.00305875 1.01238)
(0 0.00272773 1.01229)
(0 0.00240254 1.01221)
(0 0.00207274 1.01214)
(0 0.00166637 1.01207)
(0 0.00149832 1.01201)
(0 0.000844181 1.01198)
(0 0.00342432 0.64996)
(0 0.00635038 0.956626)
(0 0.0060341 1.00786)
(0 0.00620847 1.01382)
(0 0.00570402 1.01428)
(0 0.00533039 1.01421)
(0 0.0051702 1.0142)
(0 0.00480206 1.01408)
(0 0.00446257 1.01398)
(0 0.00421647 1.0139)
(0 0.00387028 1.01376)
(0 0.00357677 1.01366)
(0 0.00327023 1.01355)
(0 0.00294166 1.01344)
(0 0.00263095 1.01335)
(0 0.00231615 1.01326)
(0 0.00200254 1.01317)
(0 0.00160527 1.01311)
(0 0.00145176 1.01305)
(0 0.000831687 1.01301)
(0 0.00345657 0.631353)
(0 0.00644688 0.951244)
(0 0.00632839 1.00753)
(0 0.00621352 1.01436)
(0 0.00557323 1.01481)
(0 0.00532735 1.01481)
(0 0.00502697 1.0147)
(0 0.00456848 1.01454)
(0 0.00433318 1.01446)
(0 0.00397214 1.01429)
(0 0.00365527 1.01415)
(0 0.00338583 1.01402)
(0 0.00305974 1.01386)
(0 0.00276783 1.01373)
(0 0.00248082 1.0136)
(0 0.00218734 1.01348)
(0 0.00190579 1.01338)
(0 0.00153057 1.0133)
(0 0.00139819 1.01323)
(0 0.000815106 1.01318)
(0 0.00281746 0.61303)
(0 0.00623445 0.947063)
(0 0.00597586 1.00862)
(0 0.00565932 1.01624)
(0 0.00517255 1.01668)
(0 0.0049874 1.01657)
(0 0.00449325 1.01626)
(0 0.00423456 1.01609)
(0 0.0039408 1.01586)
(0 0.00357962 1.01563)
(0 0.00335802 1.01545)
(0 0.00305494 1.01524)
(0 0.00276901 1.01505)
(0 0.00252353 1.01488)
(0 0.002253 1.01472)
(0 0.00199423 1.01457)
(0 0.00175336 1.01444)
(0 0.00141079 1.01434)
(0 0.00131577 1.01425)
(0 0.000789507 1.01419)
(0 0.00161881 0.596119)
(0 0.00513656 0.942095)
(0 0.00448917 1.00862)
(0 0.00442194 1.01709)
(0 0.00423637 1.01764)
(0 0.00392975 1.01726)
(0 0.00363332 1.01691)
(0 0.00351987 1.01661)
(0 0.00318071 1.01626)
(0 0.00301641 1.016)
(0 0.00281153 1.01573)
(0 0.00255675 1.01547)
(0 0.00237295 1.01525)
(0 0.00216545 1.01504)
(0 0.00193931 1.01485)
(0 0.00173592 1.01468)
(0 0.001544 1.01453)
(0 0.00124364 1.01442)
(0 0.00119574 1.01431)
(0 0.000746644 1.01425)
(0 0.000539449 0.58544)
(0 0.00330517 0.939404)
(0 0.00239423 1.00893)
(0 0.00277926 1.01818)
(0 0.00270288 1.01873)
(0 0.00244795 1.01831)
(0 0.00253808 1.01801)
(0 0.00237639 1.0176)
(0 0.00226049 1.01728)
(0 0.00222062 1.01698)
(0 0.00205877 1.01668)
(0 0.00195613 1.01642)
(0 0.00184922 1.01619)
(0 0.00170384 1.01596)
(0 0.00156074 1.01577)
(0 0.00142303 1.01559)
(0 0.00129559 1.01544)
(0 0.00104975 1.01532)
(0 0.00105184 1.01521)
(0 0.000693127 1.01514)
(0 7.078e-06 0.579322)
(0 0.00146825 0.937096)
(0 0.0006102 1.00781)
(0 0.00132435 1.01751)
(0 0.00111448 1.01802)
(0 0.00125689 1.01782)
(0 0.00138414 1.0175)
(0 0.00130066 1.01717)
(0 0.00140426 1.01692)
(0 0.00137121 1.01663)
(0 0.00134839 1.01638)
(0 0.00134124 1.01615)
(0 0.00128608 1.01593)
(0 0.00122768 1.01573)
(0 0.00115874 1.01555)
(0 0.00107793 1.01539)
(0 0.00101704 1.01525)
(0 0.000830293 1.01513)
(0 0.000870988 1.01503)
(0 0.000610526 1.01495)
(0 -0.000169879 0.578519)
(0 0.000299703 0.93795)
(0 -0.000542621 1.00782)
(0 0.000180592 1.01723)
(0 -5.33543e-05 1.01784)
(0 0.000383119 1.01779)
(0 0.000368944 1.01752)
(0 0.000523677 1.01735)
(0 0.000628221 1.01715)
(0 0.000667272 1.01695)
(0 0.000747246 1.01678)
(0 0.000772031 1.0166)
(0 0.00078769 1.01643)
(0 0.00079889 1.01627)
(0 0.000783526 1.01613)
(0 0.000752738 1.016)
(0 0.00075219 1.01588)
(0 0.000621592 1.01578)
(0 0.000689922 1.01569)
(0 0.000523129 1.01561)
(0 -0.00017383 0.578301)
(0 -0.000171571 0.939001)
(0 -0.00106421 1.00715)
(0 -0.000321184 1.01594)
(0 -0.000571428 1.01663)
(0 -0.000122069 1.01664)
(0 -0.000149628 1.01649)
(0 7.39134e-05 1.01641)
(0 0.000130167 1.01627)
(0 0.000246449 1.01617)
(0 0.000323164 1.01605)
(0 0.000377365 1.01593)
(0 0.000433134 1.01582)
(0 0.000468365 1.01571)
(0 0.000485162 1.01561)
(0 0.000485315 1.01551)
(0 0.000519353 1.01542)
(0 0.000433599 1.01534)
(0 0.000509151 1.01528)
(0 0.000418493 1.0152)
(0 -8.4768e-05 0.580105)
(0 -0.000337179 0.942278)
(0 -0.00123012 1.0078)
(0 -0.000540361 1.01573)
(0 -0.00084405 1.01642)
(0 -0.000380627 1.01647)
(0 -0.000461273 1.01642)
(0 -0.00020811 1.01639)
(0 -0.000174182 1.01633)
(0 -3.67239e-05 1.01629)
(0 3.06205e-05 1.01623)
(0 0.000115019 1.01617)
(0 0.000177699 1.0161)
(0 0.000229179 1.01604)
(0 0.00027201 1.01597)
(0 0.000291276 1.01591)
(0 0.000348456 1.01585)
(0 0.000298944 1.01579)
(0 0.000376023 1.01575)
(0 0.000339784 1.01568)
(0 8.5554e-06 0.58)
(0 -0.000227709 0.944279)
(0 -0.000943793 1.00758)
(0 -0.000402422 1.01475)
(0 -0.000691397 1.0154)
(0 -0.000313146 1.01546)
(0 -0.000428451 1.01546)
(0 -0.000213509 1.01547)
(0 -0.000219293 1.01545)
(0 -0.000102157 1.01544)
(0 -6.17587e-05 1.01542)
(0 7.64997e-06 1.0154)
(0 5.2874e-05 1.01537)
(0 9.93549e-05 1.01533)
(0 0.000140682 1.0153)
(0 0.000159427 1.01526)
(0 0.000213523 1.01522)
(0 0.000187565 1.01518)
(0 0.000249402 1.01516)
(0 0.000244085 1.01511)
(0 1.90498e-05 0.581299)
(0 -0.000204214 0.946915)
(0 -0.000794814 1.00831)
(0 -0.000356353 1.01489)
(0 -0.00062336 1.01551)
(0 -0.000300304 1.01556)
(0 -0.000423477 1.0156)
(0 -0.000230502 1.01562)
(0 -0.000254413 1.01564)
(0 -0.00014637 1.01565)
(0 -0.000120268 1.01565)
(0 -5.61592e-05 1.01565)
(0 -1.60846e-05 1.01564)
(0 2.86459e-05 1.01563)
(0 6.95191e-05 1.01562)
(0 9.06491e-05 1.0156)
(0 0.000145564 1.01558)
(0 0.000133341 1.01555)
(0 0.000188116 1.01553)
(0 0.000200197 1.01549)
(0 0.000106013 0.580392)
(0 3.85466e-05 0.94814)
(0 -0.000255817 1.00799)
(0 -5.85753e-05 1.01413)
(0 -0.000221943 1.01467)
(0 -6.74007e-05 1.0147)
(0 -0.000160302 1.01475)
(0 -6.39325e-05 1.01477)
(0 -0.000100592 1.01479)
(0 -4.59074e-05 1.01481)
(0 -4.85388e-05 1.01482)
(0 -1.65386e-05 1.01482)
(0 -4.62797e-06 1.01483)
(0 1.74013e-05 1.01483)
(0 3.70589e-05 1.01482)
(0 4.58014e-05 1.01482)
(0 7.74328e-05 1.01481)
(0 7.22061e-05 1.01479)
(0 0.000101342 1.01479)
(0 0.000115737 1.01476)
(0 5.12668e-05 0.995475)
(0 5.65715e-05 0.999635)
(0 2.13098e-05 0.999986)
(0 2.13516e-05 1)
(0 1.71239e-05 1)
(0 1.68741e-05 1)
(0 1.74072e-05 1)
(0 1.85359e-05 1)
(0 2.00824e-05 1)
(0 2.11739e-05 1)
(0 2.1976e-05 1)
(0 2.27342e-05 1)
(0 2.33858e-05 1)
(0 2.34202e-05 1)
(0 2.25324e-05 1)
(0 2.07309e-05 1)
(0 1.81419e-05 1)
(0 1.49037e-05 1)
(0 1.10244e-05 1)
(0 4.45907e-06 1)
(0 -0.000101506 1.00443)
(0 -0.000114478 1.00031)
(0 -4.65784e-06 1.00002)
(0 2.70872e-05 0.999997)
(0 3.45697e-05 0.999993)
(0 4.08489e-05 0.999991)
(0 4.75278e-05 0.99999)
(0 5.479e-05 0.999991)
(0 6.11809e-05 0.999992)
(0 6.69567e-05 0.999993)
(0 7.11049e-05 0.999994)
(0 7.2712e-05 0.999996)
(0 7.17688e-05 0.999999)
(0 6.9154e-05 1)
(0 6.5377e-05 1)
(0 6.01424e-05 1)
(0 5.31568e-05 1.00001)
(0 4.44047e-05 1.00001)
(0 3.35402e-05 1.00001)
(0 1.37665e-05 1.00001)
(0 4.32813e-05 0.995634)
(0 5.43885e-05 0.99967)
(0 3.33767e-05 0.999978)
(0 4.50075e-05 0.999981)
(0 5.56722e-05 0.999978)
(0 6.83345e-05 0.999979)
(0 8.06276e-05 0.999982)
(0 9.12607e-05 0.999986)
(0 0.00010046 0.999992)
(0 0.000108555 0.999998)
(0 0.000115667 1)
(0 0.0001208 1.00001)
(0 0.000122583 1.00001)
(0 0.000120057 1.00001)
(0 0.000113056 1.00002)
(0 0.000102463 1.00002)
(0 8.93111e-05 1.00003)
(0 7.39136e-05 1.00003)
(0 5.62994e-05 1.00003)
(0 2.35586e-05 1.00003)
(0 -6.16202e-05 1.00412)
(0 -5.53047e-05 1.00019)
(0 2.71047e-05 0.999956)
(0 5.51907e-05 0.999941)
(0 7.95625e-05 0.999938)
(0 0.000100473 0.999941)
(0 0.000119039 0.999947)
(0 0.000136845 0.999955)
(0 0.000152477 0.999965)
(0 0.000163585 0.999976)
(0 0.000169186 0.999989)
(0 0.000170662 1)
(0 0.00016955 1.00001)
(0 0.00016561 1.00002)
(0 0.000157639 1.00003)
(0 0.000144807 1.00004)
(0 0.000127033 1.00004)
(0 0.000105245 1.00005)
(0 8.0466e-05 1.00005)
(0 3.38382e-05 1.00006)
(0 7.45133e-05 0.995744)
(0 0.000112956 0.999632)
(0 6.38921e-05 0.999905)
(0 7.09767e-05 0.999915)
(0 0.000102077 0.999918)
(0 0.000134346 0.999924)
(0 0.000160113 0.999935)
(0 0.000181852 0.999949)
(0 0.000201014 0.999965)
(0 0.000218159 0.99998)
(0 0.000230939 0.999994)
(0 0.000236233 1.00001)
(0 0.000232834 1.00003)
(0 0.000222231 1.00004)
(0 0.000206708 1.00006)
(0 0.000187269 1.00007)
(0 0.00016368 1.00008)
(0 0.000136206 1.00009)
(0 0.00010555 1.00009)
(0 4.50047e-05 1.0001)
(0 -1.70652e-05 1.0038)
(0 2.05445e-05 1.00001)
(0 8.40797e-05 0.999827)
(0 0.000103706 0.999835)
(0 0.000137056 0.99985)
(0 0.000173816 0.999868)
(0 0.0002108 0.999888)
(0 0.000241304 0.99991)
(0 0.000262573 0.999936)
(0 0.000276001 0.999964)
(0 0.000284486 0.999991)
(0 0.000289507 1.00001)
(0 0.000289214 1.00003)
(0 0.000280828 1.00005)
(0 0.000263245 1.00007)
(0 0.000237345 1.00008)
(0 0.000205177 1.0001)
(0 0.000169234 1.00011)
(0 0.000131063 1.00012)
(0 5.61417e-05 1.00013)
(0 0.000111681 0.995808)
(0 0.000184367 0.999534)
(0 0.000142225 0.999761)
(0 0.000156061 0.999782)
(0 0.000193762 0.999802)
(0 0.000234375 0.99983)
(0 0.000271448 0.999861)
(0 0.000306054 0.999893)
(0 0.000336752 0.999925)
(0 0.000357677 0.999959)
(0 0.00036608 0.999994)
(0 0.000362929 1.00003)
(0 0.000352011 1.00006)
(0 0.000335833 1.00009)
(0 0.000314088 1.00012)
(0 0.000284934 1.00013)
(0 0.00024819 1.00015)
(0 0.000205526 1.00016)
(0 0.000159815 1.00018)
(0 6.88659e-05 1.00019)
(0 4.26273e-06 1.00345)
(0 7.17162e-05 0.999808)
(0 0.000153036 0.99967)
(0 0.000194583 0.99969)
(0 0.000246741 0.999724)
(0 0.000299074 0.999762)
(0 0.000344358 0.999804)
(0 0.000381108 0.999851)
(0 0.000407749 0.999897)
(0 0.000427108 0.999942)
(0 0.000439119 0.999983)
(0 0.000440995 1.00002)
(0 0.000430525 1.00006)
(0 0.000408 1.00009)
(0 0.000375581 1.00013)
(0 0.000335717 1.00016)
(0 0.000290346 1.00018)
(0 0.000240116 1.0002)
(0 0.00018794 1.00021)
(0 8.17267e-05 1.00023)
(0 0.000128398 0.99583)
(0 0.000230033 0.999401)
(0 0.00022382 0.999585)
(0 0.000270797 0.999616)
(0 0.000330804 0.999663)
(0 0.000383457 0.999719)
(0 0.000432469 0.999778)
(0 0.000475339 0.999837)
(0 0.000506373 0.999895)
(0 0.000522065 0.999952)
(0 0.00052374 1.00001)
(0 0.000515889 1.00006)
(0 0.00050001 1.00011)
(0 0.000475135 1.00015)
(0 0.000439664 1.00018)
(0 0.000393999 1.00021)
(0 0.000339697 1.00024)
(0 0.000279096 1.00026)
(0 0.00021818 1.00028)
(0 9.52214e-05 1.0003)
(0 2.3481e-05 1.00308)
(0 0.000119139 0.999582)
(0 0.000239268 0.999483)
(0 0.000332475 0.999516)
(0 0.000418952 0.999569)
(0 0.000486042 0.999638)
(0 0.000535296 0.999714)
(0 0.000571421 0.999791)
(0 0.000598388 0.999865)
(0 0.000615566 0.999933)
(0 0.000620638 0.999996)
(0 0.000610485 1.00005)
(0 0.000585667 1.00011)
(0 0.000548906 1.00016)
(0 0.000502779 1.0002)
(0 0.000448777 1.00024)
(0 0.000386541 1.00027)
(0 0.000318166 1.0003)
(0 0.000250005 1.00032)
(0 0.000109599 1.00034)
(0 0.000136112 0.995787)
(0 0.000265709 0.999218)
(0 0.000311018 0.999385)
(0 0.000416931 0.999438)
(0 0.000520974 0.999512)
(0 0.000599343 0.999597)
(0 0.000656972 0.999686)
(0 0.000697367 0.999776)
(0 0.000717936 0.999867)
(0 0.000721596 0.999955)
(0 0.000712545 1.00004)
(0 0.00069453 1.00011)
(0 0.000667096 1.00017)
(0 0.00062757 1.00022)
(0 0.000575422 1.00027)
(0 0.000511565 1.00032)
(0 0.000438122 1.00035)
(0 0.000358942 1.00038)
(0 0.000281741 1.00041)
(0 0.000123893 1.00043)
(0 5.41762e-05 1.00264)
(0 0.000194586 0.999298)
(0 0.000369792 0.999258)
(0 0.000521501 0.999331)
(0 0.000646322 0.999421)
(0 0.000727816 0.999523)
(0 0.000781847 0.99963)
(0 0.00081746 0.999734)
(0 0.000840322 0.999832)
(0 0.000846506 0.999923)
(0 0.000833348 1.00001)
(0 0.000802221 1.0001)
(0 0.000757178 1.00017)
(0 0.000702631 1.00024)
(0 0.000640396 1.0003)
(0 0.000569372 1.00035)
(0 0.000489022 1.00039)
(0 0.000401183 1.00042)
(0 0.000315327 1.00045)
(0 0.000139118 1.00047)
(0 0.000163171 0.995653)
(0 0.000359155 0.998976)
(0 0.000480442 0.99917)
(0 0.000646399 0.999281)
(0 0.000779709 0.999396)
(0 0.000872518 0.999515)
(0 0.000928198 0.999637)
(0 0.00095554 0.999761)
(0 0.000961523 0.99988)
(0 0.000953871 0.999987)
(0 0.000936215 1.00008)
(0 0.000905687 1.00016)
(0 0.000859054 1.00024)
(0 0.000796353 1.00031)
(0 0.000720685 1.00038)
(0 0.000634471 1.00044)
(0 0.00054073 1.00048)
(0 0.000441403 1.00052)
(0 0.000347539 1.00055)
(0 0.000154307 1.00058)
(0 0.000110387 1.0021)
(0 0.000355306 0.998932)
(0 0.000619286 0.999)
(0 0.000808678 0.999147)
(0 0.000941509 0.999296)
(0 0.0010264 0.999438)
(0 0.00108036 0.999577)
(0 0.00110746 0.999712)
(0 0.00110984 0.999843)
(0 0.00109011 0.999968)
(0 0.00105248 1.00008)
(0 0.00100254 1.00018)
(0 0.000942752 1.00027)
(0 0.000873798 1.00035)
(0 0.000793719 1.00041)
(0 0.000700775 1.00047)
(0 0.000597472 1.00052)
(0 0.00048632 1.00056)
(0 0.000382191 1.00059)
(0 0.000169905 1.00062)
(0 0.000251543 0.995338)
(0 0.000608105 0.998625)
(0 0.000823906 0.998901)
(0 0.00100768 0.999098)
(0 0.00112627 0.999277)
(0 0.00120187 0.999446)
(0 0.00124397 0.999604)
(0 0.00125819 0.999754)
(0 0.00125039 0.999895)
(0 0.00122382 1.00003)
(0 0.00118123 1.00015)
(0 0.00112228 1.00026)
(0 0.00104885 1.00035)
(0 0.00096371 1.00044)
(0 0.000867684 1.00051)
(0 0.000762204 1.00058)
(0 0.000648745 1.00063)
(0 0.000527851 1.00067)
(0 0.000416576 1.00071)
(0 0.000186226 1.00074)
(0 0.000262471 1.00141)
(0 0.00072405 0.998503)
(0 0.00106323 0.998723)
(0 0.00123807 0.998962)
(0 0.00133461 0.999182)
(0 0.00138972 0.999381)
(0 0.00141806 0.999563)
(0 0.00142266 0.999728)
(0 0.00140205 0.999881)
(0 0.00135993 1.00002)
(0 0.00129985 1.00016)
(0 0.00122697 1.00027)
(0 0.0011443 1.00038)
(0 0.00105116 1.00047)
(0 0.000946156 1.00055)
(0 0.000830235 1.00061)
(0 0.000704605 1.00067)
(0 0.000571283 1.00072)
(0 0.000450533 1.00075)
(0 0.000201684 1.00079)
(0 0.000494614 0.994859)
(0 0.00113709 0.998237)
(0 0.00138057 0.998633)
(0 0.0015116 0.99892)
(0 0.00157637 0.999173)
(0 0.00160429 0.999404)
(0 0.00160658 0.999612)
(0 0.00158791 0.999798)
(0 0.00155401 0.999962)
(0 0.00150328 1.00011)
(0 0.00143496 1.00024)
(0 0.00134979 1.00037)
(0 0.00125037 1.00048)
(0 0.00113971 1.00058)
(0 0.00101971 1.00066)
(0 0.000892369 1.00074)
(0 0.000756619 1.0008)
(0 0.000613471 1.00084)
(0 0.000485478 1.00088)
(0 0.000218291 1.00092)
(0 0.000634833 1.00056)
(0 0.00144874 0.998053)
(0 0.00172269 0.998451)
(0 0.001804 0.998783)
(0 0.00183148 0.999074)
(0 0.00183257 0.999337)
(0 0.00180969 0.999573)
(0 0.00176785 0.999785)
(0 0.00170818 0.999972)
(0 0.00163503 1.00013)
(0 0.00155089 1.00028)
(0 0.00145602 1.0004)
(0 0.00135032 1.00051)
(0 0.00123196 1.00061)
(0 0.00110156 1.00069)
(0 0.000961306 1.00077)
(0 0.000811773 1.00083)
(0 0.000655712 1.00089)
(0 0.000518593 1.00093)
(0 0.000233774 1.00097)
(0 0.00102641 0.994196)
(0 0.00208604 0.997831)
(0 0.00214481 0.998359)
(0 0.00213701 0.998737)
(0 0.0021194 0.999064)
(0 0.00208395 0.999353)
(0 0.00203151 0.999613)
(0 0.00196208 0.999845)
(0 0.00187997 1.00005)
(0 0.00178701 1.00023)
(0 0.00168337 1.00039)
(0 0.00156973 1.00052)
(0 0.00144615 1.00064)
(0 0.00131343 1.00074)
(0 0.00117272 1.00083)
(0 0.00102383 1.00091)
(0 0.000865308 1.00097)
(0 0.000698864 1.00102)
(0 0.000554179 1.00106)
(0 0.00025104 1.00111)
(0 0.00136407 0.999539)
(0 0.0026545 0.997606)
(0 0.00257908 0.998182)
(0 0.00248518 0.99861)
(0 0.00241237 0.998975)
(0 0.00233956 0.999294)
(0 0.00225603 0.999573)
(0 0.00216005 0.99982)
(0 0.00205128 1.00004)
(0 0.0019332 1.00023)
(0 0.00181009 1.0004)
(0 0.00168161 1.00055)
(0 0.00154667 1.00067)
(0 0.00140291 1.00078)
(0 0.00125007 1.00087)
(0 0.00108803 1.00095)
(0 0.000916731 1.00101)
(0 0.000738731 1.00107)
(0 0.000586977 1.00111)
(0 0.000267056 1.00116)
)
;

boundaryField
{
    movingWall
    {
        type            zeroGradient;
    }
    leftSide
    {
        type            fixedValue;
        value           uniform (0 0 1);
    }
    rightSide
    {
        type            zeroGradient;
    }
    bottomWall
    {
        type            noSlip;
    }
    bottomWall2
    {
        type            zeroGradient;
    }
    frontAndBack
    {
        type            empty;
    }
}


// ************************************************************************* //
