/*--------------------------------*- C++ -*----------------------------------*\
  =========                 |
  \\      /  F ield         | OpenFOAM: The Open Source CFD Toolbox
   \\    /   O peration     | Website:  https://openfoam.org
    \\  /    A nd           | Version:  10
     \\/     M anipulation  |
\*---------------------------------------------------------------------------*/
FoamFile
{
    format      ascii;
    class       volScalarField;
    location    "1";
    object      p;
}
// * * * * * * * * * * * * * * * * * * * * * * * * * * * * * * * * * * * * * //

dimensions      [0 2 -2 0 0 0 0];

internalField   nonuniform List<scalar> 
1200
(
1.97532e-09
-0.00122544
-0.00179511
-0.00226006
-0.00266866
-0.00302722
-0.00334257
-0.003622
-0.00387221
-0.00409839
-0.0043043
-0.00449182
-0.00466214
-0.00481604
-0.00495396
-0.00507586
-0.00518167
-0.00527048
-0.00533924
-0.00540473
-0.000336701
-0.00138448
-0.00187208
-0.0023214
-0.00273196
-0.00309815
-0.00342231
-0.00371012
-0.00396767
-0.00420023
-0.00441119
-0.00460296
-0.00477706
-0.00493428
-0.00507482
-0.00519919
-0.00530742
-0.00539778
-0.00546861
-0.00553573
-0.00118308
-0.00185981
-0.00218798
-0.00256933
-0.00294344
-0.00328717
-0.00359744
-0.00387689
-0.00412953
-0.00435872
-0.00456747
-0.00475777
-0.00493076
-0.0050871
-0.00522733
-0.00535153
-0.00545921
-0.00554979
-0.00562118
-0.00568857
-0.00223731
-0.00256614
-0.00270933
-0.00299006
-0.0032954
-0.00358876
-0.00386396
-0.00411915
-0.00435456
-0.0045715
-0.0047709
-0.00495379
-0.00512104
-0.00527305
-0.00540966
-0.00553094
-0.00563689
-0.00572593
-0.00579633
-0.00586413
-0.00325877
-0.00337411
-0.00337024
-0.00354616
-0.00376471
-0.00399029
-0.0042141
-0.00443123
-0.00463882
-0.00483465
-0.00501782
-0.00518809
-0.00534516
-0.0054888
-0.00561903
-0.0057356
-0.00583741
-0.00592386
-0.00599291
-0.00606028
-0.00412484
-0.00415463
-0.004076
-0.00416922
-0.0043051
-0.00445993
-0.00462659
-0.00479905
-0.00497173
-0.00514074
-0.00530295
-0.00545634
-0.00559982
-0.00573273
-0.00585426
-0.00596357
-0.00606036
-0.00614307
-0.00620919
-0.00627613
-0.00481743
-0.00484192
-0.00475381
-0.00480037
-0.0048745
-0.00496912
-0.005082
-0.00520883
-0.00534442
-0.00548311
-0.00562083
-0.00575476
-0.00588252
-0.00600241
-0.00611334
-0.00621462
-0.00630464
-0.00638219
-0.00644504
-0.00651035
-0.00535935
-0.00540805
-0.00535017
-0.00538358
-0.00542542
-0.00547985
-0.0055515
-0.00564026
-0.00574183
-0.00585161
-0.00596518
-0.00607878
-0.00618976
-0.00629613
-0.00639625
-0.00648813
-0.00657084
-0.0066431
-0.00670121
-0.00676421
-0.00581116
-0.00588215
-0.00586382
-0.00590707
-0.00593935
-0.00597357
-0.00602019
-0.00608102
-0.00615536
-0.00623973
-0.0063305
-0.00642461
-0.00651913
-0.0066116
-0.00669982
-0.00678257
-0.00685803
-0.00692399
-0.00697762
-0.00703819
-0.00621279
-0.00629022
-0.00630232
-0.00636275
-0.00640066
-0.00643195
-0.0064694
-0.0065165
-0.00657342
-0.00663929
-0.00671229
-0.00678979
-0.00686937
-0.00694877
-0.0070264
-0.00709983
-0.00716735
-0.00722801
-0.00727686
-0.00733405
-0.00660954
-0.00668184
-0.00670735
-0.00677985
-0.00682639
-0.00686324
-0.00690146
-0.00694384
-0.00699196
-0.00704613
-0.00710568
-0.00716969
-0.00723663
-0.00730483
-0.00737184
-0.0074364
-0.00749751
-0.0075522
-0.00759634
-0.00765121
-0.0070091
-0.0070688
-0.00709599
-0.00717111
-0.00722441
-0.00726979
-0.00731411
-0.00735966
-0.0074069
-0.0074565
-0.00750916
-0.00756467
-0.00762239
-0.00768096
-0.00773976
-0.00779714
-0.00785076
-0.00790005
-0.00793974
-0.00799046
-0.00743227
-0.00748103
-0.0075029
-0.00757263
-0.00762563
-0.00767478
-0.00772381
-0.00777231
-0.0078206
-0.00786929
-0.00791857
-0.00796885
-0.00802011
-0.00807246
-0.0081244
-0.00817468
-0.00822346
-0.00826803
-0.00830269
-0.00835084
-0.00786923
-0.00790821
-0.00792533
-0.00798622
-0.0080354
-0.00808542
-0.00813695
-0.00818912
-0.0082405
-0.00829043
-0.00833943
-0.00838782
-0.00843602
-0.0084834
-0.00853003
-0.00857616
-0.00861957
-0.00865951
-0.00869126
-0.00873591
-0.00833422
-0.00836912
-0.0083826
-0.00843438
-0.00847589
-0.00852061
-0.00856988
-0.00862079
-0.00867145
-0.00872136
-0.00876992
-0.00881727
-0.00886325
-0.00890844
-0.00895277
-0.00899467
-0.00903481
-0.00907257
-0.00910045
-0.00914264
-0.00881181
-0.00884282
-0.00885677
-0.00890232
-0.00893793
-0.0089788
-0.00902484
-0.00907414
-0.00912436
-0.0091737
-0.00922184
-0.0092683
-0.00931347
-0.00935694
-0.00939791
-0.00943778
-0.00947566
-0.00950951
-0.00953522
-0.00957531
-0.00931882
-0.00934999
-0.00936464
-0.00940563
-0.00943527
-0.00946922
-0.00950912
-0.00955259
-0.00959768
-0.00964372
-0.00968956
-0.00973498
-0.00977894
-0.00982092
-0.00986213
-0.00990074
-0.00993602
-0.00996964
-0.0099935
-0.0100308
-0.00983465
-0.00986334
-0.00988117
-0.00992115
-0.00994921
-0.00998185
-0.0100188
-0.0100588
-0.0101009
-0.0101436
-0.0101867
-0.010229
-0.0102705
-0.0103115
-0.0103497
-0.0103858
-0.0104211
-0.0104526
-0.0104747
-0.0105116
-0.010384
-0.0104134
-0.0104321
-0.01047
-0.0104956
-0.0105237
-0.0105555
-0.01059
-0.0106262
-0.0106641
-0.010703
-0.0107428
-0.0107828
-0.0108209
-0.0108586
-0.0108953
-0.0109283
-0.0109594
-0.0109818
-0.0110166
-0.0109379
-0.0109644
-0.010986
-0.0110252
-0.0110527
-0.011083
-0.0111154
-0.0111487
-0.0111831
-0.0112177
-0.0112531
-0.0112889
-0.011324
-0.0113599
-0.011395
-0.0114275
-0.0114597
-0.0114905
-0.0115106
-0.0115449
-0.0115322
-0.0115593
-0.0115804
-0.0116166
-0.0116423
-0.0116693
-0.0116982
-0.0117284
-0.0117591
-0.0117911
-0.0118237
-0.0118566
-0.0118909
-0.0119244
-0.0119563
-0.011989
-0.0120202
-0.0120484
-0.0120689
-0.0121025
-0.0121304
-0.0121546
-0.012178
-0.0122164
-0.0122451
-0.012276
-0.0123079
-0.0123389
-0.0123697
-0.0123995
-0.012429
-0.0124596
-0.012489
-0.0125184
-0.0125493
-0.0125785
-0.012606
-0.0126348
-0.0126541
-0.0126854
-0.0127726
-0.0127974
-0.0128194
-0.0128534
-0.0128792
-0.0129064
-0.0129352
-0.0129649
-0.0129944
-0.0130242
-0.0130545
-0.0130833
-0.0131127
-0.013143
-0.0131704
-0.0131971
-0.0132252
-0.0132507
-0.0132677
-0.0132996
-0.0134269
-0.0134492
-0.0134735
-0.0135105
-0.0135395
-0.0135708
-0.0136026
-0.0136325
-0.0136617
-0.0136898
-0.0137163
-0.0137437
-0.0137711
-0.013796
-0.0138223
-0.0138495
-0.0138737
-0.0138981
-0.0139158
-0.013945
-0.0141185
-0.0141412
-0.0141633
-0.0141947
-0.0142198
-0.0142469
-0.0142758
-0.0143062
-0.0143364
-0.0143659
-0.0143965
-0.0144256
-0.0144524
-0.0144804
-0.014507
-0.0145296
-0.0145529
-0.0145771
-0.0145913
-0.0146197
-0.0148431
-0.0148637
-0.0148886
-0.0149237
-0.014952
-0.014982
-0.0150121
-0.0150401
-0.015067
-0.0150941
-0.0151194
-0.015144
-0.0151708
-0.0151959
-0.0152187
-0.0152434
-0.0152675
-0.0152885
-0.0153033
-0.0153315
-0.0155917
-0.015612
-0.0156328
-0.0156611
-0.015685
-0.015712
-0.0157407
-0.0157711
-0.0158023
-0.015832
-0.0158618
-0.0158924
-0.0159192
-0.0159439
-0.0159699
-0.0159932
-0.0160134
-0.0160361
-0.0160506
-0.016076
-0.0163925
-0.0164118
-0.0164374
-0.0164712
-0.0164981
-0.0165254
-0.0165527
-0.0165783
-0.0166018
-0.0166261
-0.016651
-0.0166738
-0.0166978
-0.0167243
-0.0167477
-0.0167687
-0.0167916
-0.0168135
-0.0168259
-0.0168525
-0.0172174
-0.0172353
-0.0172536
-0.0172786
-0.0173013
-0.0173278
-0.0173559
-0.0173851
-0.0174161
-0.0174459
-0.0174727
-0.0175
-0.0175269
-0.0175491
-0.0175707
-0.0175947
-0.0176159
-0.0176356
-0.0176498
-0.0176755
-0.0180901
-0.0181083
-0.0181348
-0.0181683
-0.0181938
-0.0182176
-0.0182404
-0.0182622
-0.0182821
-0.0183024
-0.0183263
-0.0183507
-0.0183724
-0.018396
-0.018421
-0.0184417
-0.0184607
-0.0184833
-0.0184969
-0.0185209
-0.0190157
-0.0190299
-0.0190448
-0.0190659
-0.0190872
-0.0191131
-0.0191405
-0.0191668
-0.0191932
-0.0192195
-0.0192422
-0.0192623
-0.0192846
-0.019307
-0.0193254
-0.0193438
-0.0193645
-0.0193836
-0.0193948
-0.0194198
-0.0199661
-0.0199836
-0.0200085
-0.0200388
-0.0200597
-0.0200775
-0.0200939
-0.0201111
-0.0201289
-0.0201462
-0.0201655
-0.0201887
-0.0202113
-0.0202306
-0.0202515
-0.0202739
-0.0202927
-0.0203116
-0.0203251
-0.020349
-0.0209859
-0.0209943
-0.0210071
-0.0210262
-0.0210469
-0.0210728
-0.0210997
-0.0211233
-0.021143
-0.0211614
-0.0211792
-0.0211936
-0.0212059
-0.0212215
-0.0212385
-0.0212521
-0.0212664
-0.0212853
-0.0212967
-0.0213189
-0.0220503
-0.0220682
-0.0220856
-0.0221039
-0.0221139
-0.0221225
-0.0221313
-0.0221429
-0.022159
-0.0221769
-0.0221937
-0.0222108
-0.0222303
-0.022248
-0.0222616
-0.0222755
-0.0222911
-0.0223056
-0.0223135
-0.0223352
-0.0231118
-0.0231169
-0.0231345
-0.023159
-0.0231818
-0.0232053
-0.0232269
-0.0232446
-0.0232576
-0.0232675
-0.0232779
-0.0232901
-0.0233005
-0.0233089
-0.0233197
-0.0233323
-0.0233425
-0.0233539
-0.0233611
-0.0233804
-0.0243146
-0.0243252
-0.0243254
-0.024323
-0.0243188
-0.02432
-0.0243255
-0.0243344
-0.0243466
-0.0243618
-0.0243778
-0.0243912
-0.0244028
-0.0244157
-0.0244281
-0.0244372
-0.0244459
-0.0244586
-0.0244646
-0.0244814
-0.0254071
-0.0254153
-0.0254344
-0.0254567
-0.0254713
-0.0254802
-0.0254844
-0.0254862
-0.0254878
-0.02549
-0.025493
-0.0254988
-0.0255085
-0.0255196
-0.0255297
-0.0255408
-0.0255538
-0.0255674
-0.025574
-0.0255923
-0.0266363
-0.0266246
-0.0266079
-0.026599
-0.0265949
-0.0265978
-0.0266047
-0.0266126
-0.0266196
-0.0266247
-0.0266284
-0.0266319
-0.0266343
-0.0266359
-0.0266398
-0.0266469
-0.0266547
-0.026665
-0.0266715
-0.0266887
-0.0277379
-0.0277482
-0.0277545
-0.0277537
-0.0277427
-0.0277309
-0.0277203
-0.0277124
-0.0277076
-0.027706
-0.0277067
-0.0277084
-0.0277105
-0.0277137
-0.0277178
-0.0277212
-0.0277245
-0.0277317
-0.0277339
-0.0277485
-0.0287217
-0.0287188
-0.028706
-0.0286994
-0.0286897
-0.028686
-0.0286813
-0.0286742
-0.0286662
-0.0286585
-0.0286519
-0.0286468
-0.028644
-0.0286435
-0.0286441
-0.028645
-0.0286444
-0.028654
-0.0286497
-0.0286685
-0.00381723
-0.00377439
-0.0037584
-0.00376309
-0.00376368
-0.00376635
-0.00377111
-0.00378034
-0.00379436
-0.00381369
-0.00383816
-0.00386685
-0.00389953
-0.00393501
-0.00397165
-0.00400793
-0.00404241
-0.00407313
-0.0040987
-0.00411716
-0.00379465
-0.00377374
-0.00376369
-0.00375733
-0.00375391
-0.00375474
-0.00375988
-0.00377039
-0.00378659
-0.00380872
-0.00383595
-0.00386803
-0.00390355
-0.00394107
-0.00397949
-0.00401783
-0.00405377
-0.00408516
-0.00411178
-0.00413118
-0.00375461
-0.00375258
-0.00374857
-0.00373679
-0.00373167
-0.00373375
-0.0037423
-0.00375726
-0.00377857
-0.00380554
-0.00383784
-0.00387466
-0.00391436
-0.00395565
-0.00399736
-0.00403755
-0.00407473
-0.0041084
-0.00413602
-0.0041559
-0.00369903
-0.00370878
-0.00371021
-0.00369854
-0.00369465
-0.0037017
-0.00371663
-0.00373896
-0.00376785
-0.00380258
-0.00384182
-0.00388439
-0.00392942
-0.00397578
-0.00402148
-0.00406489
-0.00410512
-0.00414033
-0.00416952
-0.00419246
-0.00363428
-0.00364968
-0.00365547
-0.00364789
-0.00364987
-0.00366342
-0.00368709
-0.00371904
-0.0037577
-0.00380137
-0.00384891
-0.00389923
-0.00395078
-0.00400219
-0.00405244
-0.00410024
-0.0041436
-0.00418132
-0.00421248
-0.00423708
-0.00356042
-0.00357252
-0.00358038
-0.00358246
-0.00359514
-0.00361925
-0.00365415
-0.00369776
-0.00374767
-0.00380206
-0.00385949
-0.00391832
-0.00397724
-0.00403513
-0.00409062
-0.00414234
-0.00418939
-0.00423013
-0.00426323
-0.00428986
-0.00347725
-0.00348139
-0.00349006
-0.00350493
-0.00353284
-0.00357098
-0.00361948
-0.00367627
-0.00373884
-0.00380505
-0.00387302
-0.00394125
-0.00400832
-0.00407288
-0.00413377
-0.00419022
-0.00424088
-0.00428442
-0.00432018
-0.00434918
-0.00338166
-0.00337388
-0.00338343
-0.00341616
-0.00346309
-0.00351889
-0.00358312
-0.00365455
-0.00373078
-0.00380961
-0.0038891
-0.00396734
-0.00404286
-0.00411468
-0.00418181
-0.00424293
-0.00429724
-0.00434422
-0.00438245
-0.00441394
-0.00327285
-0.00325411
-0.00326918
-0.0033204
-0.0033898
-0.00346631
-0.00354821
-0.00363487
-0.00372489
-0.00381641
-0.00390719
-0.00399535
-0.00407957
-0.00415875
-0.00423192
-0.00429845
-0.00435743
-0.00440763
-0.00444873
-0.00448333
-0.00314701
-0.00312228
-0.00315122
-0.0032239
-0.00331682
-0.00341528
-0.0035163
-0.00361931
-0.00372355
-0.00382735
-0.00392894
-0.00402672
-0.00411928
-0.00420556
-0.00428499
-0.00435681
-0.00442008
-0.00447435
-0.00451865
-0.00455598
-0.00300133
-0.00297987
-0.00303351
-0.00313041
-0.00324696
-0.00336744
-0.00348811
-0.00360813
-0.00372671
-0.00384267
-0.00395444
-0.00406077
-0.00416097
-0.00425418
-0.00433944
-0.00441625
-0.00448417
-0.00454217
-0.0045898
-0.00463073
-0.00283016
-0.00282804
-0.00291715
-0.00304183
-0.0031814
-0.00332309
-0.00346346
-0.0036009
-0.00373419
-0.00386215
-0.0039838
-0.00409848
-0.0042058
-0.00430524
-0.00439624
-0.00447799
-0.00454968
-0.0046112
-0.00466188
-0.00470565
-0.00262956
-0.00266728
-0.002804
-0.00295938
-0.00312087
-0.00328275
-0.00344232
-0.00359675
-0.00374417
-0.00388382
-0.00401503
-0.00413773
-0.00425198
-0.00435764
-0.00445412
-0.00454056
-0.00461641
-0.00468097
-0.00473383
-0.00478054
-0.00239726
-0.00250157
-0.0026943
-0.00288285
-0.00306623
-0.00324761
-0.00342546
-0.00359593
-0.00375689
-0.0039075
-0.00404779
-0.00417855
-0.00429981
-0.00441133
-0.00451293
-0.00460413
-0.00468386
-0.00475144
-0.00480653
-0.00485569
-0.00213283
-0.00233324
-0.00258763
-0.00281002
-0.00301717
-0.00321866
-0.00341327
-0.00359826
-0.00377155
-0.00393249
-0.00408169
-0.00422001
-0.00434788
-0.00446526
-0.00457192
-0.00466737
-0.00475106
-0.00482188
-0.00487912
-0.00493119
-0.0018363
-0.00216146
-0.00247997
-0.00273752
-0.00297182
-0.00319417
-0.00340501
-0.00360324
-0.00378801
-0.00395906
-0.004117
-0.00426285
-0.00439719
-0.00452008
-0.00463146
-0.00473118
-0.00481849
-0.00489223
-0.00495163
-0.00500641
-0.00150974
-0.00198399
-0.00236562
-0.00266105
-0.00292591
-0.00317068
-0.003398
-0.00360907
-0.00380479
-0.00398577
-0.00415273
-0.00430629
-0.0044471
-0.00457561
-0.00469194
-0.00479571
-0.00488643
-0.00496298
-0.00502386
-0.00508094
-0.00115908
-0.00179843
-0.00223784
-0.00257507
-0.00287367
-0.00314311
-0.00338853
-0.00361337
-0.00382045
-0.00401162
-0.00418777
-0.00434954
-0.00449737
-0.00463179
-0.00475304
-0.00486114
-0.00495542
-0.00503445
-0.00509664
-0.00515558
-0.000790128
-0.0016002
-0.0020932
-0.00247482
-0.00280975
-0.00310686
-0.00337299
-0.00361368
-0.00383343
-0.00403531
-0.00422107
-0.00439138
-0.00454662
-0.00468738
-0.00481409
-0.00492664
-0.00502456
-0.0051066
-0.00517036
-0.0052311
-0.000400403
-0.00138228
-0.0019271
-0.00235495
-0.00272888
-0.00305727
-0.00334798
-0.00360773
-0.0038424
-0.00405638
-0.00425225
-0.00443139
-0.00459443
-0.00474194
-0.00487426
-0.00499159
-0.00509361
-0.00517887
-0.0052449
-0.00530798
)
;

boundaryField
{
    movingWall
    {
        type            zeroGradient;
    }
    leftSide
    {
        type            zeroGradient;
    }
    rightSide
    {
        type            zeroGradient;
    }
    bottomWall
    {
        type            zeroGradient;
    }
    bottomWall2
    {
        type            zeroGradient;
    }
    frontAndBack
    {
        type            empty;
    }
}


// ************************************************************************* //
