/*--------------------------------*- C++ -*----------------------------------*\
  =========                 |
  \\      /  F ield         | OpenFOAM: The Open Source CFD Toolbox
   \\    /   O peration     | Website:  https://openfoam.org
    \\  /    A nd           | Version:  10
     \\/     M anipulation  |
\*---------------------------------------------------------------------------*/
FoamFile
{
    format      ascii;
    class       surfaceScalarField;
    location    "1";
    object      phi;
}
// * * * * * * * * * * * * * * * * * * * * * * * * * * * * * * * * * * * * * //

dimensions      [0 3 -1 0 0 0 0];

internalField   nonuniform List<scalar> 
2320
(
1.73043e-07
3.42351e-05
-3.44082e-05
1.51526e-07
3.57875e-05
-3.5766e-05
1.40368e-07
3.71321e-05
-3.71209e-05
1.32588e-07
3.85279e-05
-3.85201e-05
1.2602e-07
3.99753e-05
-3.99687e-05
1.19823e-07
4.14756e-05
-4.14694e-05
1.13774e-07
4.30303e-05
-4.30243e-05
1.07732e-07
4.46415e-05
-4.46354e-05
1.0154e-07
4.63114e-05
-4.63052e-05
9.50512e-08
4.80423e-05
-4.80358e-05
8.82947e-08
4.98365e-05
-4.98298e-05
8.11884e-08
5.16965e-05
-5.16894e-05
7.37621e-08
5.36248e-05
-5.36174e-05
6.60818e-08
5.56239e-05
-5.56162e-05
5.81417e-08
5.76965e-05
-5.76885e-05
4.98749e-08
5.98454e-05
-5.98371e-05
4.12876e-08
6.20735e-05
-6.20649e-05
3.24538e-08
6.43835e-05
-6.43747e-05
2.30507e-08
6.67789e-05
-6.67695e-05
6.92632e-05
-6.92536e-05
2.27772e-07
3.40073e-05
1.9743e-07
3.58178e-05
1.75727e-07
3.71538e-05
1.60713e-07
3.85429e-05
1.48393e-07
3.99876e-05
1.37595e-07
4.14864e-05
1.27902e-07
4.304e-05
1.18906e-07
4.46505e-05
1.10329e-07
4.632e-05
1.02032e-07
4.80506e-05
9.37733e-08
4.98448e-05
8.55636e-08
5.17047e-05
7.73305e-08
5.3633e-05
6.89531e-08
5.56322e-05
6.03794e-08
5.7705e-05
5.16327e-08
5.98541e-05
4.26684e-08
6.20824e-05
3.32631e-08
6.43929e-05
2.37117e-08
6.67884e-05
6.92733e-05
2.66623e-07
3.37407e-05
2.4176e-07
3.58427e-05
2.17362e-07
3.71782e-05
1.96344e-07
3.85639e-05
1.79034e-07
4.00049e-05
1.65351e-07
4.15001e-05
1.53534e-07
4.30518e-05
1.42771e-07
4.46612e-05
1.32627e-07
4.63301e-05
1.22715e-07
4.80605e-05
1.12952e-07
4.98545e-05
1.0312e-07
5.17146e-05
9.31294e-08
5.3643e-05
8.29956e-08
5.56424e-05
7.27315e-08
5.77153e-05
6.22141e-08
5.98646e-05
5.13519e-08
6.20933e-05
4.03238e-08
6.4404e-05
2.89492e-08
6.67998e-05
6.92852e-05
2.87034e-07
3.34537e-05
2.73881e-07
3.58559e-05
2.48946e-07
3.72031e-05
2.25137e-07
3.85877e-05
2.04554e-07
4.00255e-05
1.86115e-07
4.15185e-05
1.70116e-07
4.30678e-05
1.55924e-07
4.46754e-05
1.42904e-07
4.63431e-05
1.30788e-07
4.80726e-05
1.19197e-07
4.98661e-05
1.07991e-07
5.17258e-05
9.70253e-08
5.3654e-05
8.61262e-08
5.56533e-05
7.51077e-08
5.77263e-05
6.39636e-08
5.98758e-05
5.27395e-08
6.21045e-05
4.11613e-08
6.44155e-05
2.92402e-08
6.68117e-05
6.92975e-05
2.96792e-07
3.31569e-05
2.9451e-07
3.58581e-05
2.74856e-07
3.72228e-05
2.54027e-07
3.86085e-05
2.34301e-07
4.00452e-05
2.16271e-07
4.15366e-05
1.99451e-07
4.30846e-05
1.8379e-07
4.46911e-05
1.69221e-07
4.63577e-05
1.55375e-07
4.80865e-05
1.42083e-07
4.98794e-05
1.29047e-07
5.17388e-05
1.16064e-07
5.3667e-05
1.03053e-07
5.56663e-05
9.00402e-08
5.77393e-05
7.68939e-08
5.98889e-05
6.33975e-08
6.2118e-05
4.97674e-08
6.44292e-05
3.58135e-08
6.68257e-05
6.9312e-05
3.01819e-07
3.28551e-05
3.05469e-07
3.58545e-05
2.90369e-07
3.72379e-05
2.71931e-07
3.8627e-05
2.52106e-07
4.00651e-05
2.32176e-07
4.15565e-05
2.13149e-07
4.31037e-05
1.95271e-07
4.4709e-05
1.7839e-07
4.63746e-05
1.62518e-07
4.81023e-05
1.47397e-07
4.98945e-05
1.32943e-07
5.17533e-05
1.19008e-07
5.36809e-05
1.05381e-07
5.56799e-05
9.17429e-08
5.7753e-05
7.80049e-08
5.99027e-05
6.43135e-08
6.21317e-05
5.02142e-08
6.44433e-05
3.56967e-08
6.68402e-05
6.93268e-05
3.10352e-07
3.25447e-05
3.1582e-07
3.5849e-05
3.04318e-07
3.72494e-05
2.90975e-07
3.86403e-05
2.75093e-07
4.00809e-05
2.58049e-07
4.15735e-05
2.40804e-07
4.31209e-05
2.23628e-07
4.47262e-05
2.06782e-07
4.63914e-05
1.90109e-07
4.8119e-05
1.73711e-07
4.99109e-05
1.57525e-07
5.17695e-05
1.41434e-07
5.3697e-05
1.25363e-07
5.5696e-05
1.09396e-07
5.77689e-05
9.34365e-08
5.99186e-05
7.70861e-08
6.21481e-05
6.05391e-08
6.44598e-05
4.37484e-08
6.6857e-05
6.93442e-05
3.19475e-07
3.22252e-05
3.25012e-07
3.58435e-05
3.12441e-07
3.7262e-05
2.97638e-07
3.86551e-05
2.81909e-07
4.00967e-05
2.65119e-07
4.15903e-05
2.47075e-07
4.3139e-05
2.28789e-07
4.47444e-05
2.10571e-07
4.64096e-05
1.92864e-07
4.81367e-05
1.75615e-07
4.99282e-05
1.58728e-07
5.17863e-05
1.42166e-07
5.37135e-05
1.259e-07
5.57122e-05
1.09668e-07
5.77852e-05
9.329e-08
5.9935e-05
7.69502e-08
6.21644e-05
6.02408e-08
6.44765e-05
4.30257e-08
6.68742e-05
6.93618e-05
3.3335e-07
3.18919e-05
3.4109e-07
3.58358e-05
3.2771e-07
3.72753e-05
3.14853e-07
3.8668e-05
3.02008e-07
4.01095e-05
2.88389e-07
4.16039e-05
2.73658e-07
4.31537e-05
2.57447e-07
4.47607e-05
2.40428e-07
4.64267e-05
2.22701e-07
4.81544e-05
2.04575e-07
4.99463e-05
1.86261e-07
5.18047e-05
1.67787e-07
5.3732e-05
1.49066e-07
5.5731e-05
1.30199e-07
5.7804e-05
1.11288e-07
5.99539e-05
9.19401e-08
6.21837e-05
7.23202e-08
6.44961e-05
5.24823e-08
6.6894e-05
6.93822e-05
3.45309e-07
3.15466e-05
3.55936e-07
3.58251e-05
3.39548e-07
3.72917e-05
3.22835e-07
3.86847e-05
3.06522e-07
4.01258e-05
2.89832e-07
4.16206e-05
2.72896e-07
4.31706e-05
2.55616e-07
4.47779e-05
2.3766e-07
4.64446e-05
2.19509e-07
4.81726e-05
2.0129e-07
4.99645e-05
1.82983e-07
5.1823e-05
1.64627e-07
5.37504e-05
1.46313e-07
5.57493e-05
1.27914e-07
5.78224e-05
1.09153e-07
5.99727e-05
9.02606e-08
6.22026e-05
7.09864e-08
6.45154e-05
5.11117e-08
6.69139e-05
6.94026e-05
3.6185e-07
3.11847e-05
3.78444e-07
3.58085e-05
3.62741e-07
3.73074e-05
3.47327e-07
3.87001e-05
3.32622e-07
4.01405e-05
3.18188e-07
4.16351e-05
3.03282e-07
4.31855e-05
2.87564e-07
4.47937e-05
2.70956e-07
4.64612e-05
2.53062e-07
4.81905e-05
2.34065e-07
4.99835e-05
2.14302e-07
5.18427e-05
1.93943e-07
5.37707e-05
1.72999e-07
5.57702e-05
1.51534e-07
5.78439e-05
1.29814e-07
5.99944e-05
1.07587e-07
6.22249e-05
8.48906e-08
6.45381e-05
6.18355e-08
6.6937e-05
6.94262e-05
3.73533e-07
3.08112e-05
3.94752e-07
3.57873e-05
3.77287e-07
3.73249e-05
3.57097e-07
3.87203e-05
3.37198e-07
4.01604e-05
3.17719e-07
4.16545e-05
2.98757e-07
4.32045e-05
2.8028e-07
4.48121e-05
2.61824e-07
4.64797e-05
2.4337e-07
4.82089e-05
2.24702e-07
5.00022e-05
2.05602e-07
5.18618e-05
1.86079e-07
5.37903e-05
1.66192e-07
5.57901e-05
1.46019e-07
5.78641e-05
1.25296e-07
6.00151e-05
1.04092e-07
6.22461e-05
8.23553e-08
6.45599e-05
5.99223e-08
6.69594e-05
6.94495e-05
3.90718e-07
3.04205e-05
4.19691e-07
3.57583e-05
4.05444e-07
3.73391e-05
3.89068e-07
3.87367e-05
3.72393e-07
4.01771e-05
3.55742e-07
4.16712e-05
3.38844e-07
4.32214e-05
3.21184e-07
4.48298e-05
3.02887e-07
4.6498e-05
2.83663e-07
4.82282e-05
2.6341e-07
5.00224e-05
2.4221e-07
5.1883e-05
2.2008e-07
5.38124e-05
1.97123e-07
5.58131e-05
1.73291e-07
5.78879e-05
1.4882e-07
6.00396e-05
1.23773e-07
6.22711e-05
9.80908e-08
6.45855e-05
7.17447e-08
6.69857e-05
6.94763e-05
4.01196e-07
3.00193e-05
4.34395e-07
3.57251e-05
4.18077e-07
3.73555e-05
3.96688e-07
3.87581e-05
3.74688e-07
4.01991e-05
3.52647e-07
4.16932e-05
3.30783e-07
4.32433e-05
3.09588e-07
4.4851e-05
2.88802e-07
4.65188e-05
2.68408e-07
4.82486e-05
2.48234e-07
5.00426e-05
2.27932e-07
5.19033e-05
2.0729e-07
5.3833e-05
1.86016e-07
5.58343e-05
1.64182e-07
5.79097e-05
1.41692e-07
6.00621e-05
1.18338e-07
6.22945e-05
9.41357e-08
6.46097e-05
6.92039e-08
6.70107e-05
6.95023e-05
4.19473e-07
2.95998e-05
4.61482e-07
3.56831e-05
4.49865e-07
3.73671e-05
4.34707e-07
3.87732e-05
4.18348e-07
4.02155e-05
4.00729e-07
4.17109e-05
3.82076e-07
4.32619e-05
3.62078e-07
4.4871e-05
3.41055e-07
4.65398e-05
3.19057e-07
4.82706e-05
2.9607e-07
5.00656e-05
2.72207e-07
5.19272e-05
2.47461e-07
5.38578e-05
2.22027e-07
5.58598e-05
1.95749e-07
5.7936e-05
1.68502e-07
6.00893e-05
1.40562e-07
6.23224e-05
1.11969e-07
6.46383e-05
8.23541e-08
6.70403e-05
6.95326e-05
4.29334e-07
2.91705e-05
4.74647e-07
3.56378e-05
4.5874e-07
3.7383e-05
4.36348e-07
3.87956e-05
4.13117e-07
4.02387e-05
3.89543e-07
4.17344e-05
3.65846e-07
4.32856e-05
3.42706e-07
4.48941e-05
3.19931e-07
4.65626e-05
2.97422e-07
4.82931e-05
2.75148e-07
5.00879e-05
2.52843e-07
5.19495e-05
2.3035e-07
5.38803e-05
2.07238e-07
5.58829e-05
1.83371e-07
5.79599e-05
1.58887e-07
6.01138e-05
1.33394e-07
6.23479e-05
1.06593e-07
6.46651e-05
7.89728e-08
6.70679e-05
6.95614e-05
4.49635e-07
2.87208e-05
5.05949e-07
3.55815e-05
4.96616e-07
3.73923e-05
4.82277e-07
3.88099e-05
4.66316e-07
4.02547e-05
4.48623e-07
4.17521e-05
4.29224e-07
4.3305e-05
4.07678e-07
4.49157e-05
3.84368e-07
4.65859e-05
3.59575e-07
4.83179e-05
3.33413e-07
5.0114e-05
3.06225e-07
5.19767e-05
2.78069e-07
5.39084e-05
2.49224e-07
5.59117e-05
2.19852e-07
5.79893e-05
1.8953e-07
6.01441e-05
1.58364e-07
6.23791e-05
1.2672e-07
6.46968e-05
9.39167e-08
6.71007e-05
6.95951e-05
4.58979e-07
2.82619e-05
5.17436e-07
3.5523e-05
5.00784e-07
3.7409e-05
4.7599e-07
3.88347e-05
4.50834e-07
4.02798e-05
4.25942e-07
4.1777e-05
4.01126e-07
4.33298e-05
3.76852e-07
4.49399e-05
3.52919e-07
4.66098e-05
3.29102e-07
4.83417e-05
3.05325e-07
5.01378e-05
2.81188e-07
5.20008e-05
2.56641e-07
5.3933e-05
2.31431e-07
5.59369e-05
2.05075e-07
5.80156e-05
1.77884e-07
6.01713e-05
1.49826e-07
6.24071e-05
1.20128e-07
6.47265e-05
8.93859e-08
6.71314e-05
6.96271e-05
4.81979e-07
2.77799e-05
5.55467e-07
3.54496e-05
5.48956e-07
3.74155e-05
5.34724e-07
3.8849e-05
5.18381e-07
4.02962e-05
4.99885e-07
4.17955e-05
4.7935e-07
4.33504e-05
4.5623e-07
4.49631e-05
4.3069e-07
4.66353e-05
4.03144e-07
4.83692e-05
3.73824e-07
5.01671e-05
3.43311e-07
5.20313e-05
3.11729e-07
5.39646e-05
2.79162e-07
5.59695e-05
2.46213e-07
5.80486e-05
2.12561e-07
6.0205e-05
1.77825e-07
6.24419e-05
1.42723e-07
6.47616e-05
1.06627e-07
6.71675e-05
6.96643e-05
4.90257e-07
2.72896e-05
5.6335e-07
3.53765e-05
5.45662e-07
3.74332e-05
5.17653e-07
3.8877e-05
4.89681e-07
4.03241e-05
4.62717e-07
4.18225e-05
4.3642e-07
4.33767e-05
4.11103e-07
4.49884e-05
3.86507e-07
4.66599e-05
3.6204e-07
4.83937e-05
3.37418e-07
5.01918e-05
3.12022e-07
5.20567e-05
2.85659e-07
5.39909e-05
2.58453e-07
5.59967e-05
2.2971e-07
5.80773e-05
1.9948e-07
6.02352e-05
1.68329e-07
6.2473e-05
1.35464e-07
6.47944e-05
1.012e-07
6.72018e-05
6.96998e-05
5.16622e-07
2.6773e-05
6.11232e-07
3.52819e-05
6.09045e-07
3.74353e-05
5.9481e-07
3.88912e-05
5.77353e-07
4.03416e-05
5.56923e-07
4.18429e-05
5.33897e-07
4.33997e-05
5.07984e-07
4.50143e-05
4.79332e-07
4.66886e-05
4.48552e-07
4.84245e-05
4.15889e-07
5.02244e-05
3.8194e-07
5.20907e-05
3.47075e-07
5.40258e-05
3.11018e-07
5.60328e-05
2.74354e-07
5.8114e-05
2.37271e-07
6.02723e-05
1.99022e-07
6.25113e-05
1.60085e-07
6.48334e-05
1.20243e-07
6.72416e-05
6.97408e-05
5.22998e-07
2.625e-05
6.12256e-07
3.51926e-05
5.93788e-07
3.74538e-05
5.62539e-07
3.89225e-05
5.31679e-07
4.03724e-05
5.02531e-07
4.1872e-05
4.74686e-07
4.34275e-05
4.48224e-07
4.50408e-05
4.22811e-07
4.6714e-05
3.97536e-07
4.84497e-05
3.71959e-07
5.025e-05
3.45437e-07
5.21172e-05
3.17313e-07
5.40539e-05
2.8788e-07
5.60622e-05
2.56814e-07
5.8145e-05
2.23678e-07
6.03054e-05
1.89109e-07
6.25458e-05
1.52917e-07
6.48696e-05
1.15133e-07
6.72794e-05
6.97802e-05
5.53156e-07
2.56969e-05
6.73268e-07
3.50725e-05
6.77059e-07
3.745e-05
6.62825e-07
3.89367e-05
6.43715e-07
4.03916e-05
6.20535e-07
4.18952e-05
5.93918e-07
4.34541e-05
5.63947e-07
4.50707e-05
5.30965e-07
4.6747e-05
4.9596e-07
4.84848e-05
4.59349e-07
5.02866e-05
4.21499e-07
5.21551e-05
3.8311e-07
5.40923e-05
3.43924e-07
5.61014e-05
3.0379e-07
5.81852e-05
2.63137e-07
6.03461e-05
2.21519e-07
6.25874e-05
1.78696e-07
6.49124e-05
1.34506e-07
6.73236e-05
6.98254e-05
5.57575e-07
2.51393e-05
6.65079e-07
3.4965e-05
6.46531e-07
3.74686e-05
6.12309e-07
3.89709e-05
5.78944e-07
4.04249e-05
5.4815e-07
4.1926e-05
5.19298e-07
4.3483e-05
4.91991e-07
4.5098e-05
4.6575e-07
4.67732e-05
4.39352e-07
4.85111e-05
4.12105e-07
5.03139e-05
3.83716e-07
5.21834e-05
3.53334e-07
5.41227e-05
3.20827e-07
5.61339e-05
2.86626e-07
5.82194e-05
2.50442e-07
6.03823e-05
2.12281e-07
6.26256e-05
1.7242e-07
6.49523e-05
1.31169e-07
6.73649e-05
6.98688e-05
5.90846e-07
2.45484e-05
7.40465e-07
3.48154e-05
7.51512e-07
3.74575e-05
7.36958e-07
3.89855e-05
7.15426e-07
4.04464e-05
6.88517e-07
4.19529e-05
6.5722e-07
4.35143e-05
6.22274e-07
4.5133e-05
5.84227e-07
4.68113e-05
5.44358e-07
4.8551e-05
5.03536e-07
5.03547e-05
4.61768e-07
5.22252e-05
4.19596e-07
5.41648e-05
3.77345e-07
5.61761e-05
3.34264e-07
5.82624e-05
2.90029e-07
6.04265e-05
2.44784e-07
6.26709e-05
1.98256e-07
6.49988e-05
1.49664e-07
6.74135e-05
6.99186e-05
5.94371e-07
2.39541e-05
7.23605e-07
3.46861e-05
7.06549e-07
3.74746e-05
6.69991e-07
3.9022e-05
6.34842e-07
4.04816e-05
6.03207e-07
4.19846e-05
5.74123e-07
4.35434e-05
5.46403e-07
4.51607e-05
5.19301e-07
4.68384e-05
4.9149e-07
4.85788e-05
4.6177e-07
5.03844e-05
4.30137e-07
5.22568e-05
3.96347e-07
5.41986e-05
3.59753e-07
5.62127e-05
3.20912e-07
5.83013e-05
2.80591e-07
6.04668e-05
2.38446e-07
6.2713e-05
1.94178e-07
6.5043e-05
1.48685e-07
6.7459e-05
6.99661e-05
6.29009e-07
2.33251e-05
8.11323e-07
3.45038e-05
8.30392e-07
3.74555e-05
8.14593e-07
3.90378e-05
7.89203e-07
4.0507e-05
7.57193e-07
4.20166e-05
7.20074e-07
4.35805e-05
6.79462e-07
4.52013e-05
6.36234e-07
4.68816e-05
5.91545e-07
4.86235e-05
5.46753e-07
5.04292e-05
5.0187e-07
5.23017e-05
4.56538e-07
5.4244e-05
4.11184e-07
5.62581e-05
3.65426e-07
5.8347e-05
3.17985e-07
6.05143e-05
2.68868e-07
6.27621e-05
2.18686e-07
6.50932e-05
1.66287e-07
6.75114e-05
7.00202e-05
6.32554e-07
2.26925e-05
7.88253e-07
3.43481e-05
7.75384e-07
3.74684e-05
7.37932e-07
3.90753e-05
7.02207e-07
4.05427e-05
6.70708e-07
4.20481e-05
6.42078e-07
4.36091e-05
6.14174e-07
4.52292e-05
5.85703e-07
4.69101e-05
5.55636e-07
4.86536e-05
5.22539e-07
5.04623e-05
4.8614e-07
5.23381e-05
4.4719e-07
5.42829e-05
4.05629e-07
5.62997e-05
3.61389e-07
5.83913e-05
3.15605e-07
6.05601e-05
2.68509e-07
6.28092e-05
2.19058e-07
6.51427e-05
1.68081e-07
6.75623e-05
7.00732e-05
6.68629e-07
2.20239e-05
8.87199e-07
3.41295e-05
9.14888e-07
3.74407e-05
8.96099e-07
3.90941e-05
8.64657e-07
4.05742e-05
8.25787e-07
4.20869e-05
7.81668e-07
4.36532e-05
7.34728e-07
4.52762e-05
6.86613e-07
4.69582e-05
6.38027e-07
4.87022e-05
5.89976e-07
5.05103e-05
5.42799e-07
5.23853e-05
4.95431e-07
5.43303e-05
4.4718e-07
5.63479e-05
3.98156e-07
5.84403e-05
3.47554e-07
6.06107e-05
2.9476e-07
6.2862e-05
2.40592e-07
6.51968e-05
1.84294e-07
6.76186e-05
7.01313e-05
6.69028e-07
2.13548e-05
8.55463e-07
3.39431e-05
8.50419e-07
3.74457e-05
8.14651e-07
3.91298e-05
7.80373e-07
4.06084e-05
7.5022e-07
4.21171e-05
7.2229e-07
4.36812e-05
6.93795e-07
4.53047e-05
6.62654e-07
4.69893e-05
6.28294e-07
4.87365e-05
5.90248e-07
5.05484e-05
5.48121e-07
5.24274e-05
5.02797e-07
5.43756e-05
4.55448e-07
5.63953e-05
4.06029e-07
5.84897e-05
3.54651e-07
6.0662e-05
3.0179e-07
6.29149e-05
2.46858e-07
6.52518e-05
1.90323e-07
6.76752e-05
7.01901e-05
7.12413e-07
2.06424e-05
9.73204e-07
3.36823e-05
1.0102e-06
3.74087e-05
9.85804e-07
3.91542e-05
9.45324e-07
4.06489e-05
8.97659e-07
4.21648e-05
8.45859e-07
4.3733e-05
7.92797e-07
4.53577e-05
7.40704e-07
4.70414e-05
6.89799e-07
4.87874e-05
6.39606e-07
5.05986e-05
5.90056e-07
5.2477e-05
5.40489e-07
5.44252e-05
4.89469e-07
5.64463e-05
4.3652e-07
5.85427e-05
3.81763e-07
6.07168e-05
3.24898e-07
6.29717e-05
2.66021e-07
6.53107e-05
2.04417e-07
6.77368e-05
7.02536e-05
6.98737e-07
1.99437e-05
9.18606e-07
3.34625e-05
9.26336e-07
3.7401e-05
8.96081e-07
3.91845e-05
8.65678e-07
4.06793e-05
8.37419e-07
4.2193e-05
8.09109e-07
4.37613e-05
7.78212e-07
4.53886e-05
7.42478e-07
4.70772e-05
7.01647e-07
4.88283e-05
6.56871e-07
5.06434e-05
6.0876e-07
5.25251e-05
5.57563e-07
5.44764e-05
5.04252e-07
5.64996e-05
4.49541e-07
5.85974e-05
3.93259e-07
6.07731e-05
3.35177e-07
6.30298e-05
2.75063e-07
6.53708e-05
2.13682e-07
6.77981e-05
7.03175e-05
7.614e-07
1.91823e-05
1.06976e-06
3.31541e-05
1.11506e-06
3.73557e-05
1.08164e-06
3.92179e-05
1.02951e-06
4.07314e-05
9.7249e-07
4.225e-05
9.14557e-07
4.38192e-05
8.5767e-07
4.54455e-05
8.03271e-07
4.71316e-05
7.51378e-07
4.88802e-05
7.00305e-07
5.06944e-05
6.48506e-07
5.25769e-05
5.95542e-07
5.45293e-05
5.40898e-07
5.65542e-05
4.83737e-07
5.86546e-05
4.23748e-07
6.08331e-05
3.61266e-07
6.30923e-05
2.96684e-07
6.54354e-05
2.28884e-07
6.78659e-05
7.03873e-05
7.1792e-07
1.84644e-05
9.77937e-07
3.28941e-05
1.0075e-06
3.73262e-05
9.87364e-07
3.9238e-05
9.61777e-07
4.0757e-05
9.33778e-07
4.2278e-05
9.01379e-07
4.38516e-05
8.6361e-07
4.54833e-05
8.20041e-07
4.71751e-05
7.71051e-07
4.89291e-05
7.18223e-07
5.07473e-05
6.63417e-07
5.26317e-05
6.07225e-07
5.45855e-05
5.49468e-07
5.6612e-05
4.90313e-07
5.87137e-05
4.30078e-07
6.08933e-05
3.68206e-07
6.31542e-05
3.03637e-07
6.54999e-05
2.37247e-07
6.79323e-05
7.04568e-05
8.11008e-07
1.76534e-05
1.16259e-06
3.25425e-05
1.21062e-06
3.72781e-05
1.16608e-06
3.92826e-05
1.10377e-06
4.08193e-05
1.04128e-06
4.23405e-05
9.82228e-07
4.39107e-05
9.26458e-07
4.5539e-05
8.73035e-07
4.72285e-05
8.20837e-07
4.89813e-05
7.68392e-07
5.07997e-05
7.13886e-07
5.26862e-05
6.56356e-07
5.46431e-05
5.96029e-07
5.66723e-05
5.33165e-07
5.87766e-05
4.67359e-07
6.09591e-05
3.98777e-07
6.32227e-05
3.28398e-07
6.55703e-05
2.5509e-07
6.80056e-05
7.05321e-05
7.29457e-07
1.69239e-05
1.04761e-06
3.22243e-05
1.112e-06
3.72137e-05
1.10305e-06
3.92915e-05
1.07691e-06
4.08455e-05
1.0419e-06
4.23755e-05
9.98814e-07
4.39538e-05
9.49122e-07
4.55887e-05
8.94777e-07
4.72829e-05
8.37301e-07
4.90388e-05
7.7769e-07
5.08593e-05
7.17043e-07
5.27468e-05
6.56114e-07
5.4704e-05
5.94599e-07
5.67338e-05
5.31698e-07
5.88395e-05
4.67299e-07
6.10235e-05
4.01221e-07
6.32888e-05
3.32436e-07
6.56391e-05
2.61821e-07
6.80763e-05
7.06062e-05
8.4182e-07
1.60821e-05
1.22158e-06
3.18446e-05
1.27195e-06
3.71634e-05
1.22453e-06
3.9339e-05
1.16288e-06
4.09071e-05
1.10455e-06
4.24339e-05
1.05061e-06
4.40077e-05
9.98971e-07
4.56404e-05
9.47113e-07
4.73347e-05
8.93262e-07
4.90927e-05
8.36716e-07
5.09159e-05
7.77096e-07
5.28065e-05
7.14025e-07
5.47671e-05
6.47632e-07
5.68002e-05
5.78632e-07
5.89085e-05
5.07232e-07
6.10949e-05
4.33312e-07
6.33627e-05
3.57738e-07
6.57147e-05
2.79164e-07
6.81548e-05
7.06868e-05
7.40044e-07
1.5342e-05
1.1305e-06
3.14541e-05
1.22859e-06
3.70653e-05
1.22065e-06
3.93469e-05
1.18239e-06
4.09454e-05
1.13341e-06
4.24828e-05
1.07798e-06
4.40632e-05
1.019e-06
4.56993e-05
9.58463e-07
4.73953e-05
8.97646e-07
4.91535e-05
8.3661e-07
5.09769e-05
7.7486e-07
5.28682e-05
7.11902e-07
5.483e-05
6.47405e-07
5.68647e-05
5.8089e-07
5.8975e-05
5.12214e-07
6.11636e-05
4.40637e-07
6.34343e-05
3.66453e-07
6.57888e-05
2.902e-07
6.82311e-05
7.07661e-05
8.2796e-07
1.45141e-05
1.23486e-06
3.10472e-05
1.31067e-06
3.69895e-05
1.27989e-06
3.93777e-05
1.2303e-06
4.0995e-05
1.17818e-06
4.25349e-05
1.12538e-06
4.4116e-05
1.07072e-06
4.5754e-05
1.01353e-06
4.74525e-05
9.53346e-07
4.92137e-05
8.90286e-07
5.104e-05
8.2476e-07
5.29337e-05
7.57235e-07
5.48975e-05
6.87758e-07
5.69342e-05
6.16086e-07
5.90467e-05
5.4191e-07
6.12378e-05
4.66156e-07
6.35101e-05
3.86751e-07
6.58682e-05
3.04707e-07
6.83131e-05
7.08513e-05
7.56507e-07
1.19483e-06
1.30294e-06
1.28544e-06
1.23719e-06
1.18288e-06
1.12678e-06
1.06939e-06
1.01067e-06
9.50482e-07
8.88633e-07
8.2491e-07
7.59019e-07
6.90783e-07
6.20283e-07
5.47577e-07
4.72348e-07
3.95043e-07
3.15048e-07
1.72534e-09
3.45863e-05
1.30821e-09
3.58705e-05
2.65683e-11
3.72041e-05
-3.32276e-10
3.85854e-05
-2.72292e-10
4.00186e-05
5.00478e-11
4.15053e-05
5.20019e-10
4.30473e-05
1.06188e-09
4.46466e-05
1.61952e-09
4.63055e-05
2.12642e-09
4.8026e-05
2.56213e-09
4.98105e-05
2.83353e-09
5.16614e-05
2.96476e-09
5.35811e-05
3.00286e-09
5.5572e-05
2.92746e-09
5.76369e-05
2.74346e-09
5.97785e-05
2.44507e-09
6.19996e-05
2.08128e-09
6.43033e-05
1.60498e-09
6.66926e-05
6.91707e-05
-1.01393e-08
3.45886e-05
-5.32035e-09
3.58656e-05
-5.7283e-10
3.71993e-05
3.34892e-10
3.85845e-05
4.86119e-10
4.00185e-05
6.34199e-10
4.15051e-05
1.04797e-09
4.30468e-05
1.45987e-09
4.46462e-05
1.87915e-09
4.63051e-05
2.22344e-09
4.80257e-05
2.48273e-09
4.98103e-05
2.7214e-09
5.16612e-05
2.87056e-09
5.35809e-05
2.82383e-09
5.5572e-05
2.63447e-09
5.7637e-05
2.32149e-09
5.97788e-05
1.93473e-09
6.2e-05
1.43477e-09
6.43038e-05
7.01744e-10
6.66933e-05
6.91714e-05
-9.24672e-10
3.45892e-05
-1.38084e-09
3.58661e-05
-1.40498e-09
3.71993e-05
-3.30292e-10
3.85834e-05
5.69545e-10
4.00176e-05
1.78025e-09
4.15039e-05
3.15908e-09
4.30455e-05
4.6588e-09
4.46447e-05
6.0572e-09
4.63037e-05
7.275e-09
4.80245e-05
8.24041e-09
4.98093e-05
8.82289e-09
5.16606e-05
9.05806e-09
5.35807e-05
9.01564e-09
5.55721e-05
8.64852e-09
5.76374e-05
7.9273e-09
5.97795e-05
6.86671e-09
6.20011e-05
5.61267e-09
6.4305e-05
4.03948e-09
6.66949e-05
6.91731e-05
-7.71006e-09
3.45893e-05
-6.22463e-09
3.58646e-05
-3.05445e-09
3.71962e-05
-1.11897e-09
3.85815e-05
4.78435e-10
4.0016e-05
1.94096e-09
4.15024e-05
3.4162e-09
4.3044e-05
4.78836e-09
4.46433e-05
6.02072e-09
4.63024e-05
7.06889e-09
4.80234e-05
7.83027e-09
4.98085e-05
8.31941e-09
5.16601e-05
8.49031e-09
5.35805e-05
8.27e-09
5.55723e-05
7.6869e-09
5.7638e-05
6.86275e-09
5.97803e-05
5.8337e-09
6.20021e-05
4.33586e-09
6.43065e-05
2.60501e-09
6.66966e-05
6.91748e-05
4.56532e-10
3.45893e-05
-9.42591e-10
3.5866e-05
-2.23685e-09
3.71975e-05
-3.78817e-10
3.85796e-05
2.31883e-09
4.00133e-05
4.94698e-09
4.14998e-05
7.33352e-09
4.30416e-05
9.59493e-09
4.46411e-05
1.15548e-08
4.63005e-05
1.31065e-08
4.80219e-05
1.42073e-08
4.98074e-05
1.4832e-08
5.16595e-05
1.49493e-08
5.35804e-05
1.45629e-08
5.55727e-05
1.37364e-08
5.76388e-05
1.24341e-08
5.97816e-05
1.06086e-08
6.20039e-05
8.47645e-09
6.43087e-05
6.19811e-09
6.66989e-05
6.91774e-05
-5.22857e-09
3.45893e-05
-4.85413e-09
3.58656e-05
-3.25727e-09
3.71959e-05
-7.68931e-10
3.85772e-05
2.41627e-09
4.00101e-05
5.44982e-09
4.14968e-05
8.01002e-09
4.3039e-05
1.01024e-08
4.4639e-05
1.1762e-08
4.62988e-05
1.30605e-08
4.80206e-05
1.39109e-08
4.98066e-05
1.42788e-08
5.16591e-05
1.4163e-08
5.35805e-05
1.36226e-08
5.55732e-05
1.2618e-08
5.76398e-05
1.11799e-08
5.97831e-05
9.41886e-09
6.20057e-05
7.14841e-09
6.43109e-05
4.57433e-09
6.67015e-05
6.918e-05
1.73815e-09
3.4589e-05
5.62309e-10
3.58668e-05
-2.9366e-10
3.71967e-05
2.38712e-09
3.85745e-05
6.3141e-09
4.00062e-05
1.02923e-08
4.14928e-05
1.36054e-08
4.30357e-05
1.63417e-08
4.46363e-05
1.85072e-08
4.62966e-05
2.00181e-08
4.80191e-05
2.08852e-08
4.98057e-05
2.11595e-08
5.16588e-05
2.08514e-08
5.35808e-05
1.99209e-08
5.55741e-05
1.84591e-08
5.76413e-05
1.65136e-08
5.9785e-05
1.39642e-08
6.20083e-05
1.10857e-08
6.43138e-05
7.99263e-09
6.67046e-05
6.91834e-05
-5.0863e-09
3.45901e-05
-3.2024e-09
3.58649e-05
-4.5306e-12
3.71935e-05
3.59405e-09
3.85709e-05
7.75578e-09
4.0002e-05
1.17022e-08
4.14889e-05
1.49947e-08
4.30324e-05
1.7433e-08
4.46338e-05
1.91559e-08
4.62949e-05
2.02644e-08
4.8018e-05
2.07851e-08
4.98052e-05
2.07057e-08
5.16589e-05
2.00417e-08
5.35815e-05
1.89323e-08
5.55752e-05
1.73592e-08
5.76429e-05
1.5251e-08
5.97871e-05
1.27614e-08
6.20107e-05
9.85505e-09
6.43167e-05
6.55183e-09
6.67079e-05
6.91867e-05
9.10274e-10
3.45901e-05
2.37666e-09
3.58635e-05
5.00959e-09
3.71909e-05
9.31816e-09
3.85666e-05
1.38807e-08
3.99974e-05
1.81408e-08
4.14846e-05
2.18336e-08
4.30287e-05
2.47082e-08
4.46309e-05
2.67141e-08
4.62929e-05
2.78153e-08
4.80169e-05
2.81159e-08
4.98049e-05
2.77195e-08
5.16593e-05
2.67157e-08
5.35825e-05
2.50707e-08
5.55769e-05
2.28455e-08
5.76451e-05
2.01651e-08
5.97898e-05
1.6981e-08
6.20139e-05
1.34515e-08
6.43203e-05
9.61643e-09
6.67117e-05
6.91909e-05
-5.87424e-09
3.45913e-05
-3.65456e-10
3.58579e-05
7.09934e-09
3.71834e-05
1.26037e-08
3.85611e-05
1.70614e-08
3.9993e-05
2.07544e-08
4.14809e-05
2.3885e-08
4.30256e-05
2.62411e-08
4.46286e-05
2.76771e-08
4.62915e-05
2.82674e-08
4.80163e-05
2.81286e-08
4.9805e-05
2.73436e-08
5.16601e-05
2.59542e-08
5.35839e-05
2.40926e-08
5.55787e-05
2.1803e-08
5.76474e-05
1.90344e-08
5.97926e-05
1.59002e-08
6.20171e-05
1.24256e-08
6.43237e-05
8.48785e-09
6.67156e-05
6.9195e-05
1.96829e-10
3.45903e-05
6.41129e-09
3.58517e-05
1.36036e-08
3.71762e-05
2.00594e-08
3.85546e-05
2.47423e-08
3.99883e-05
2.8479e-08
4.14772e-05
3.15853e-08
4.30225e-05
3.39688e-08
4.46262e-05
3.54024e-08
4.629e-05
3.58433e-08
4.80158e-05
3.53665e-08
4.98055e-05
3.4105e-08
5.16614e-05
3.22522e-08
5.35857e-05
2.98395e-08
5.55812e-05
2.68807e-08
5.76503e-05
2.35354e-08
5.97959e-05
1.9799e-08
6.20208e-05
1.56687e-08
6.43279e-05
1.11336e-08
6.67202e-05
6.91999e-05
-4.97082e-09
3.45896e-05
6.24587e-09
3.58405e-05
1.76729e-08
3.71648e-05
2.47403e-08
3.85475e-05
2.90926e-08
3.9984e-05
3.21211e-08
4.14741e-05
3.43762e-08
4.30203e-05
3.57841e-08
4.46248e-05
3.63505e-08
4.62895e-05
3.60492e-08
4.80161e-05
3.49957e-08
4.98066e-05
3.34656e-08
5.16629e-05
3.14191e-08
5.35878e-05
2.89052e-08
5.55837e-05
2.59876e-08
5.76533e-05
2.26009e-08
5.97993e-05
1.88726e-08
6.20245e-05
1.48344e-08
6.43319e-05
1.03265e-08
6.67247e-05
6.92047e-05
2.21755e-09
3.45861e-05
1.54298e-08
3.58273e-05
2.55867e-08
3.71547e-05
3.2783e-08
3.85403e-05
3.7346e-08
3.99794e-05
4.0507e-08
4.1471e-05
4.257e-08
4.30182e-05
4.36218e-08
4.46237e-05
4.37226e-08
4.62894e-05
4.30655e-08
4.80168e-05
4.18131e-08
4.98078e-05
3.98755e-08
5.16648e-05
3.73649e-08
5.35903e-05
3.43106e-08
5.55867e-05
3.06966e-08
5.76569e-05
2.66878e-08
5.98033e-05
2.23679e-08
6.20288e-05
1.77018e-08
6.43366e-05
1.25834e-08
6.67298e-05
6.92102e-05
2.84459e-09
3.45797e-05
1.94175e-08
3.58107e-05
3.12259e-08
3.71429e-05
3.70762e-08
3.85345e-05
4.17062e-08
3.99748e-05
4.45775e-08
4.14681e-05
4.56035e-08
4.30172e-05
4.55634e-08
4.46238e-05
4.46562e-08
4.62903e-05
4.33386e-08
4.80181e-05
4.15815e-08
4.98096e-05
3.93312e-08
5.16671e-05
3.6566e-08
5.3593e-05
3.33529e-08
5.55899e-05
2.97938e-08
5.76604e-05
2.58191e-08
5.98073e-05
2.14734e-08
6.20332e-05
1.6908e-08
6.43411e-05
1.19391e-08
6.67348e-05
6.92156e-05
1.5276e-08
3.45676e-05
3.16562e-08
3.57944e-05
3.90365e-08
3.71355e-05
4.52802e-08
3.85282e-05
4.98118e-08
3.99702e-05
5.25604e-08
4.14654e-05
5.34419e-08
4.30163e-05
5.28551e-08
4.46244e-05
5.18121e-08
4.62913e-05
5.0183e-08
4.80197e-05
4.80156e-08
4.98118e-05
4.52568e-08
5.16698e-05
4.19856e-08
5.35963e-05
3.82571e-08
5.55937e-05
3.40593e-08
5.76646e-05
2.94863e-08
5.98119e-05
2.45815e-08
6.20381e-05
1.94152e-08
6.43463e-05
1.38633e-08
6.67403e-05
6.92217e-05
2.22434e-08
3.45506e-05
3.94531e-08
3.57771e-05
4.62994e-08
3.71286e-05
5.14594e-08
3.85231e-05
5.46292e-08
3.99671e-05
5.57388e-08
4.14642e-05
5.556e-08
4.30165e-05
5.44794e-08
4.46254e-05
5.26574e-08
4.62931e-05
5.03531e-08
4.8022e-05
4.76102e-08
4.98145e-05
4.45316e-08
5.16729e-05
4.10655e-08
5.35998e-05
3.7213e-08
5.55975e-05
3.30667e-08
5.76688e-05
2.85922e-08
5.98163e-05
2.37149e-08
6.2043e-05
1.86256e-08
6.43514e-05
1.32969e-08
6.67457e-05
6.92276e-05
4.06392e-08
3.45257e-05
5.10834e-08
3.57667e-05
5.63344e-08
3.71234e-05
6.03545e-08
3.85191e-05
6.25047e-08
3.99649e-05
6.3138e-08
4.14636e-05
6.26767e-08
4.30169e-05
6.13827e-08
4.46267e-05
5.93162e-08
4.62952e-05
5.66484e-08
4.80247e-05
5.35153e-08
4.98176e-05
4.99182e-08
5.16765e-05
4.59311e-08
5.36038e-05
4.15966e-08
5.56019e-05
3.68906e-08
5.76735e-05
3.18579e-08
5.98214e-05
2.6497e-08
6.20483e-05
2.08411e-08
6.4357e-05
1.49828e-08
6.67515e-05
6.92341e-05
5.42474e-08
3.44941e-05
6.05245e-08
3.57604e-05
6.53193e-08
3.71186e-05
6.72086e-08
3.85172e-05
6.74878e-08
3.99646e-05
6.66276e-08
4.14645e-05
6.4975e-08
4.30186e-05
6.26814e-08
4.4629e-05
5.98422e-08
4.62981e-05
5.65672e-08
4.8028e-05
5.29103e-08
4.98213e-05
4.90105e-08
5.16804e-05
4.48664e-08
5.36079e-05
4.0438e-08
5.56063e-05
3.57661e-08
5.76781e-05
3.08452e-08
5.98263e-05
2.5603e-08
6.20536e-05
1.99972e-08
6.43627e-05
1.43835e-08
6.67571e-05
6.92404e-05
7.73776e-08
3.4454e-05
7.61777e-08
3.57616e-05
7.6416e-08
3.71183e-05
7.63346e-08
3.85173e-05
7.53195e-08
3.99656e-05
7.37388e-08
4.14661e-05
7.16029e-08
4.30207e-05
6.89704e-08
4.46317e-05
6.58466e-08
4.63012e-05
6.22415e-08
4.80316e-05
5.82595e-08
4.98253e-05
5.38988e-08
5.16848e-05
4.9246e-08
5.36126e-05
4.43498e-08
5.56112e-05
3.9181e-08
5.76833e-05
3.37369e-08
5.98317e-05
2.80693e-08
6.20592e-05
2.19475e-08
6.43688e-05
1.58578e-08
6.67632e-05
6.92472e-05
9.41334e-08
8.97638e-08
8.71686e-08
8.43452e-08
8.12702e-08
7.7918e-08
7.43614e-08
7.05818e-08
6.657e-08
6.23375e-08
5.78495e-08
5.32067e-08
4.84114e-08
4.34117e-08
3.82072e-08
3.28116e-08
2.71801e-08
2.12634e-08
1.5022e-08
)
;

boundaryField
{
    movingWall
    {
        type            calculated;
        value           nonuniform List<scalar> 
60
(
1.34767e-08
1.36041e-08
1.70419e-08
1.69219e-08
2.13439e-08
2.08256e-08
2.64095e-08
2.5398e-08
3.21032e-08
3.06563e-08
3.82811e-08
3.66363e-08
4.49093e-08
4.31684e-08
5.21205e-08
5.01191e-08
6.02383e-08
5.74275e-08
6.9427e-08
6.56448e-08
7.92894e-08
7.56867e-08
8.92764e-08
8.78607e-08
9.98424e-08
1.01114e-07
1.12231e-07
1.15098e-07
1.26143e-07
1.31567e-07
1.40879e-07
1.4981e-07
1.5904e-07
1.67773e-07
1.79766e-07
1.87782e-07
1.98553e-07
2.10872e-07
2.19484e-07
2.33001e-07
1.00097e-09
-2.2022e-11
2.32598e-09
9.2998e-10
3.54577e-09
2.04126e-09
4.5594e-09
3.19971e-09
5.44687e-09
4.37429e-09
6.27211e-09
5.50264e-09
7.08377e-09
6.5123e-09
7.82715e-09
7.36665e-09
8.50877e-09
8.073e-09
9.07878e-09
8.61361e-09
)
;
    }
    leftSide
    {
        type            calculated;
        value           nonuniform List<scalar> 
20
(
-3.4585e-05
-3.587e-05
-3.72028e-05
-3.85851e-05
-4.00187e-05
-4.15056e-05
-4.30477e-05
-4.46472e-05
-4.6306e-05
-4.80265e-05
-4.9811e-05
-5.16617e-05
-5.35812e-05
-5.5572e-05
-5.76368e-05
-5.97783e-05
-6.19993e-05
-6.43029e-05
-6.66921e-05
-6.91701e-05
)
;
    }
    rightSide
    {
        type            calculated;
        value           nonuniform List<scalar> 
20
(
1.37576e-05
3.06089e-05
3.68814e-05
3.93952e-05
4.10432e-05
4.25893e-05
4.41721e-05
4.58114e-05
4.75112e-05
4.92739e-05
5.11018e-05
5.29975e-05
5.49634e-05
5.70024e-05
5.91172e-05
6.13105e-05
6.35853e-05
6.59456e-05
6.83931e-05
7.09334e-05
)
;
    }
    bottomWall
    {
        type            calculated;
        value           uniform 0;
    }
    bottomWall2
    {