/*--------------------------------*- C++ -*----------------------------------*\
  =========                 |
  \\      /  F ield         | OpenFOAM: The Open Source CFD Toolbox
   \\    /   O peration     | Website:  https://openfoam.org
    \\  /    A nd           | Version:  10
     \\/     M anipulation  |
\*---------------------------------------------------------------------------*/
FoamFile
{
    format      ascii;
    class       volVectorField;
    location    "1";
    object      U;
}
// * * * * * * * * * * * * * * * * * * * * * * * * * * * * * * * * * * * * * //

dimensions      [0 1 -1 0 0 0 0];

internalField   nonuniform List<vector> 
1200
(
(0 0.00223324 0.992368)
(0 0.00396377 0.997419)
(0 0.00327765 0.998025)
(0 0.00298265 0.998531)
(0 0.00283414 0.998961)
(0 0.00269318 0.999323)
(0 0.0025613 0.999631)
(0 0.00242414 0.999897)
(0 0.00229081 1.00013)
(0 0.00214652 1.00033)
(0 0.00200102 1.00051)
(0 0.00184865 1.00066)
(0 0.00168895 1.0008)
(0 0.0015237 1.00091)
(0 0.00135389 1.00101)
(0 0.00117693 1.0011)
(0 0.000990577 1.00117)
(0 0.000798944 1.00122)
(0 0.000641304 1.00127)
(0 0.000297129 1.00131)
(0 0.00302686 0.984868)
(0 0.00510565 0.997585)
(0 0.00392131 0.998122)
(0 0.00350057 0.99852)
(0 0.0032553 0.9989)
(0 0.00302648 0.999254)
(0 0.00281072 0.99957)
(0 0.00261597 0.999849)
(0 0.00242396 1.00009)
(0 0.00224611 1.00031)
(0 0.00206762 1.0005)
(0 0.0018918 1.00066)
(0 0.00171793 1.0008)
(0 0.00154304 1.00093)
(0 0.00136404 1.00104)
(0 0.00117928 1.00113)
(0 0.000992236 1.0012)
(0 0.000796512 1.00127)
(0 0.000634743 1.00131)
(0 0.000289769 1.00137)
(0 0.00361921 0.97766)
(0 0.00598481 0.997864)
(0 0.00449301 0.998412)
(0 0.00405324 0.998847)
(0 0.00376732 0.999247)
(0 0.00349503 0.999594)
(0 0.00325063 0.999897)
(0 0.00301804 1.00016)
(0 0.0028087 1.0004)
(0 0.00260054 1.0006)
(0 0.00239961 1.00078)
(0 0.00219937 1.00094)
(0 0.00199637 1.00107)
(0 0.00179089 1.00119)
(0 0.00158251 1.00129)
(0 0.00137285 1.00138)
(0 0.00115215 1.00145)
(0 0.000924322 1.00151)
(0 0.000746395 1.00155)
(0 0.000349314 1.0016)
(0 0.00392831 0.970325)
(0 0.00645123 0.998476)
(0 0.00487864 0.998963)
(0 0.00446963 0.999184)
(0 0.00413892 0.999455)
(0 0.00380046 0.999735)
(0 0.00347921 1)
(0 0.00319561 1.00025)
(0 0.00292676 1.00047)
(0 0.00268436 1.00067)
(0 0.00245177 1.00085)
(0 0.00222757 1.00101)
(0 0.00201027 1.00114)
(0 0.00179588 1.00127)
(0 0.00158221 1.00137)
(0 0.00136192 1.00146)
(0 0.001142 1.00153)
(0 0.000916076 1.00159)
(0 0.000730554 1.00164)
(0 0.000334977 1.00169)
(0 0.0040387 0.96269)
(0 0.00661881 0.998897)
(0 0.00509476 0.999579)
(0 0.00483739 0.999828)
(0 0.00454196 1.00008)
(0 0.00420722 1.00031)
(0 0.00389614 1.00052)
(0 0.00359556 1.00073)
(0 0.00332533 1.00092)
(0 0.00306183 1.00109)
(0 0.00280896 1.00124)
(0 0.00256261 1.00137)
(0 0.00231708 1.00149)
(0 0.00207174 1.0016)
(0 0.00182339 1.00169)
(0 0.00157938 1.00177)
(0 0.0013242 1.00183)
(0 0.00105825 1.00188)
(0 0.000859707 1.00192)
(0 0.000406648 1.00197)
(0 0.00403188 0.954561)
(0 0.00656827 0.999486)
(0 0.00513759 1.00034)
(0 0.00500705 1.00036)
(0 0.00472015 1.00046)
(0 0.00436619 1.0006)
(0 0.00400977 1.00076)
(0 0.00368659 1.00092)
(0 0.00337361 1.00108)
(0 0.003086 1.00124)
(0 0.00281232 1.00138)
(0 0.00254828 1.00151)
(0 0.0022933 1.00162)
(0 0.00204304 1.00172)
(0 0.00179828 1.00181)
(0 0.00154532 1.00189)
(0 0.0012926 1.00195)
(0 0.00103836 1.00201)
(0 0.00083141 1.00205)
(0 0.000383174 1.0021)
(0 0.00401217 0.945942)
(0 0.00650715 0.99955)
(0 0.00513795 1.00093)
(0 0.00516893 1.00108)
(0 0.00495234 1.0012)
(0 0.0046472 1.0013)
(0 0.00434796 1.0014)
(0 0.00404003 1.00151)
(0 0.00375161 1.00163)
(0 0.00346314 1.00174)
(0 0.00317786 1.00185)
(0 0.00289827 1.00194)
(0 0.00261925 1.00203)
(0 0.0023416 1.00211)
(0 0.00205844 1.00218)
(0 0.00178205 1.00224)
(0 0.00149666 1.0023)
(0 0.00119451 1.00234)
(0 0.000976988 1.00238)
(0 0.000467728 1.00242)
(0 0.00399378 0.936847)
(0 0.00642014 0.999833)
(0 0.00508755 1.00162)
(0 0.00517427 1.00158)
(0 0.00494799 1.00157)
(0 0.00463756 1.00161)
(0 0.00430873 1.00167)
(0 0.00400173 1.00176)
(0 0.00369047 1.00185)
(0 0.0033912 1.00194)
(0 0.00310203 1.00204)
(0 0.00281681 1.00213)
(0 0.00253795 1.00221)
(0 0.00226145 1.00229)
(0 0.00199311 1.00235)
(0 0.0017158 1.00241)
(0 0.00143439 1.00247)
(0 0.00115518 1.00251)
(0 0.000933593 1.00254)
(0 0.000434283 1.00259)
(0 0.00401923 0.927277)
(0 0.00645742 0.999372)
(0 0.00512659 1.00197)
(0 0.00529119 1.00218)
(0 0.00511087 1.00226)
(0 0.00484635 1.00231)
(0 0.00459264 1.00235)
(0 0.00431772 1.00239)
(0 0.00404713 1.00244)
(0 0.00376556 1.0025)
(0 0.00347299 1.00256)
(0 0.00317946 1.00261)
(0 0.00288112 1.00267)
(0 0.00258237 1.00272)
(0 0.00227359 1.00277)
(0 0.00196818 1.00281)
(0 0.00165809 1.00285)
(0 0.00132471 1.00288)
(0 0.0010905 1.00291)
(0 0.000528572 1.00295)
(0 0.00403839 0.917367)
(0 0.00645883 0.999407)
(0 0.00514305 1.00258)
(0 0.00527923 1.00258)
(0 0.00503341 1.00255)
(0 0.00473856 1.00256)
(0 0.00443763 1.00259)
(0 0.00416065 1.00263)
(0 0.00387403 1.00268)
(0 0.00358595 1.00273)
(0 0.00330271 1.00278)
(0 0.00301517 1.00284)
(0 0.00272913 1.00289)
(0 0.00243959 1.00294)
(0 0.00215607 1.00299)
(0 0.00186495 1.00303)
(0 0.00156172 1.00306)
(0 0.00125971 1.0031)
(0 0.00103196 1.00312)
(0 0.000487223 1.00316)
(0 0.00408156 0.906976)
(0 0.00657719 0.998462)
(0 0.0052827 1.00269)
(0 0.00546402 1.00303)
(0 0.00524475 1.00315)
(0 0.00497878 1.0032)
(0 0.00474911 1.00323)
(0 0.00449956 1.00325)
(0 0.00424805 1.00328)
(0 0.00398328 1.0033)
(0 0.00369655 1.00333)
(0 0.00340213 1.00335)
(0 0.00309539 1.00338)
(0 0.00278494 1.00341)
(0 0.00246169 1.00343)
(0 0.00213233 1.00346)
(0 0.00180199 1.00348)
(0 0.00144417 1.00351)
(0 0.0011959 1.00352)
(0 0.000586128 1.00356)
(0 0.00408743 0.896361)
(0 0.00658032 0.998393)
(0 0.00532943 1.00336)
(0 0.00546301 1.00341)
(0 0.00514978 1.00337)
(0 0.00483372 1.00339)
(0 0.00453113 1.00343)
(0 0.00426041 1.00347)
(0 0.00398692 1.00351)
(0 0.00370762 1.00355)
(0 0.00343419 1.00358)
(0 0.00315225 1.00362)
(0 0.0028695 1.00365)
(0 0.00257783 1.00367)
(0 0.00228481 1.0037)
(0 0.00198924 1.00373)
(0 0.00167434 1.00375)
(0 0.00135111 1.00377)
(0 0.00112418 1.00379)
(0 0.000541359 1.00382)
(0 0.00411033 0.885165)
(0 0.00669791 0.996963)
(0 0.00550536 1.0033)
(0 0.00570574 1.00379)
(0 0.00544504 1.00394)
(0 0.00516184 1.00401)
(0 0.00493094 1.00405)
(0 0.00468411 1.00407)
(0 0.00443073 1.0041)
(0 0.0041689 1.00412)
(0 0.00388166 1.00413)
(0 0.00358552 1.00415)
(0 0.00327252 1.00416)
(0 0.00295243 1.00417)
(0 0.00262246 1.00418)
(0 0.00227488 1.00419)
(0 0.00192528 1.0042)
(0 0.00154968 1.00422)
(0 0.00129229 1.00423)
(0 0.000639562 1.00426)
(0 0.00408708 0.873855)
(0 0.00665619 0.996868)
(0 0.0055137 1.00414)
(0 0.00566283 1.00425)
(0 0.00530319 1.00419)
(0 0.00496943 1.00421)
(0 0.00465478 1.00426)
(0 0.00437226 1.00431)
(0 0.00409627 1.00435)
(0 0.00381327 1.00439)
(0 0.00354035 1.00442)
(0 0.00325916 1.00444)
(0 0.0029787 1.00446)
(0 0.00269 1.00448)
(0 0.00238938 1.00449)
(0 0.00209104 1.00451)
(0 0.00177277 1.00452)
(0 0.00142892 1.00453)
(0 0.00120489 1.00454)
(0 0.0005933 1.00456)
(0 0.00409306 0.861795)
(0 0.00676266 0.994869)
(0 0.00569776 1.00392)
(0 0.00593441 1.00461)
(0 0.00566751 1.00478)
(0 0.005386 1.00485)
(0 0.00515455 1.00489)
(0 0.00490523 1.00492)
(0 0.00463821 1.00494)
(0 0.00436546 1.00496)
(0 0.00406583 1.00497)
(0 0.00375852 1.00499)
(0 0.00343464 1.00499)
(0 0.0030985 1.005)
(0 0.00276133 1.005)
(0 0.00240216 1.00501)
(0 0.00203195 1.00501)
(0 0.00164071 1.00502)
(0 0.00138145 1.00502)
(0 0.000690599 1.00505)
(0 0.00405256 0.849772)
(0 0.00668904 0.994769)
(0 0.00565159 1.00496)
(0 0.00581333 1.00518)
(0 0.00543122 1.0051)
(0 0.00510002 1.00511)
(0 0.00478686 1.00515)
(0 0.00449531 1.00519)
(0 0.00421569 1.00524)
(0 0.00392614 1.00527)
(0 0.0036488 1.0053)
(0 0.00336468 1.00533)
(0 0.00307981 1.00534)
(0 0.00279403 1.00535)
(0 0.00248755 1.00536)
(0 0.00217976 1.00536)
(0 0.00186184 1.00537)
(0 0.00150107 1.00537)
(0 0.00127583 1.00537)
(0 0.000640957 1.00539)
(0 0.00405433 0.836761)
(0 0.00680702 0.992073)
(0 0.0058693 1.00454)
(0 0.0061282 1.00554)
(0 0.00587007 1.00573)
(0 0.00560733 1.00579)
(0 0.00538514 1.00582)
(0 0.00514043 1.00584)
(0 0.00486165 1.00585)
(0 0.00457476 1.00587)
(0 0.00425843 1.00588)
(0 0.00393256 1.00589)
(0 0.00359608 1.0059)
(0 0.00323896 1.0059)
(0 0.00288619 1.00591)
(0 0.00252146 1.00591)
(0 0.00213131 1.00591)
(0 0.00171895 1.00592)
(0 0.00146562 1.00592)
(0 0.000742795 1.00593)
(0 0.00400575 0.824008)
(0 0.00671363 0.99197)
(0 0.0057669 1.00577)
(0 0.00591709 1.00621)
(0 0.00551335 1.00611)
(0 0.00519116 1.00612)
(0 0.00489034 1.00615)
(0 0.00459949 1.00618)
(0 0.00432488 1.00622)
(0 0.00403716 1.00625)
(0 0.00375974 1.00627)
(0 0.00347829 1.00629)
(0 0.00318528 1.0063)
(0 0.00289936 1.00631)
(0 0.00259341 1.00631)
(0 0.00226853 1.0063)
(0 0.00194541 1.00631)
(0 0.00157336 1.00631)
(0 0.00134135 1.0063)
(0 0.000683599 1.00632)
(0 0.00400581 0.80994)
(0 0.00685987 0.988446)
(0 0.00605812 1.00513)
(0 0.00631918 1.00656)
(0 0.00606516 1.00678)
(0 0.00581971 1.00683)
(0 0.00560333 1.00684)
(0 0.00536373 1.00686)
(0 0.00507657 1.00686)
(0 0.00477678 1.00687)
(0 0.00444733 1.00688)
(0 0.00409978 1.00689)
(0 0.00375277 1.00689)
(0 0.00337974 1.0069)
(0 0.00300202 1.0069)
(0 0.00263358 1.0069)
(0 0.00223249 1.0069)
(0 0.00179144 1.0069)
(0 0.00154516 1.00691)
(0 0.000796962 1.00692)
(0 0.00395273 0.796457)
(0 0.00673747 0.988314)
(0 0.00587667 1.00652)
(0 0.00599915 1.00731)
(0 0.00556953 1.00723)
(0 0.00525011 1.00723)
(0 0.00496098 1.00726)
(0 0.00467491 1.00729)
(0 0.00441057 1.00732)
(0 0.0041341 1.00734)
(0 0.00386126 1.00735)
(0 0.00359198 1.00736)
(0 0.00329617 1.00735)
(0 0.003004 1.00735)
(0 0.00270599 1.00735)
(0 0.0023684 1.00734)
(0 0.00202939 1.00734)
(0 0.00164887 1.00734)
(0 0.00141244 1.00733)
(0 0.000727418 1.00734)
(0 0.00394466 0.781207)
(0 0.00692542 0.983866)
(0 0.00627972 1.00565)
(0 0.00653443 1.00764)
(0 0.00627854 1.00789)
(0 0.00604021 1.00793)
(0 0.00581747 1.00794)
(0 0.00557254 1.00796)
(0 0.00527264 1.00796)
(0 0.00495518 1.00797)
(0 0.00461681 1.00797)
(0 0.004248 1.00798)
(0 0.00388805 1.00798)
(0 0.00351224 1.00798)
(0 0.00311144 1.00798)
(0 0.00273133 1.00798)
(0 0.00233187 1.00799)
(0 0.00186481 1.00798)
(0 0.00161637 1.00799)
(0 0.000847467 1.008)
(0 0.00389204 0.767016)
(0 0.00675399 0.983617)
(0 0.00598093 1.00714)
(0 0.00607343 1.00849)
(0 0.00562237 1.00846)
(0 0.00530165 1.00847)
(0 0.00502327 1.0085)
(0 0.0047436 1.00852)
(0 0.00448894 1.00854)
(0 0.00422904 1.00854)
(0 0.00395857 1.00854)
(0 0.00370076 1.00854)
(0 0.00341404 1.00853)
(0 0.00310862 1.00852)
(0 0.00281246 1.00851)
(0 0.00247852 1.0085)
(0 0.00211992 1.00848)
(0 0.00172237 1.00848)
(0 0.0014935 1.00847)
(0 0.000780741 1.00847)
(0 0.00386506 0.750449)
(0 0.00699492 0.978226)
(0 0.00652305 1.00608)
(0 0.00677101 1.00878)
(0 0.00651033 1.00906)
(0 0.00627142 1.0091)
(0 0.00603067 1.00911)
(0 0.0057671 1.00913)
(0 0.00544846 1.00914)
(0 0.00510354 1.00915)
(0 0.00475599 1.00916)
(0 0.00437424 1.00917)
(0 0.0039915 1.00917)
(0 0.00361889 1.00918)
(0 0.00321529 1.00917)
(0 0.00281313 1.00917)
(0 0.00241543 1.00917)
(0 0.00193978 1.00917)
(0 0.00167966 1.00917)
(0 0.000888483 1.00919)
(0 0.00382623 0.735592)
(0 0.00676503 0.977648)
(0 0.00608848 1.00756)
(0 0.00615373 1.00975)
(0 0.00569282 1.00981)
(0 0.00537386 1.00983)
(0 0.00511028 1.00985)
(0 0.00484168 1.00987)
(0 0.00459243 1.00987)
(0 0.00435064 1.00987)
(0 0.00408139 1.00986)
(0 0.00381827 1.00984)
(0 0.00354641 1.00983)
(0 0.00323116 1.0098)
(0 0.00291308 1.00978)
(0 0.00258713 1.00977)
(0 0.00222313 1.00975)
(0 0.00179388 1.00974)
(0 0.00157684 1.00973)
(0 0.000843776 1.00973)
(0 0.00376436 0.717561)
(0 0.00705669 0.971424)
(0 0.00676375 1.00639)
(0 0.00700505 1.00999)
(0 0.00673625 1.01031)
(0 0.00649098 1.01035)
(0 0.006223 1.01037)
(0 0.00592958 1.0104)
(0 0.00559246 1.01042)
(0 0.00521652 1.01044)
(0 0.0048511 1.01046)
(0 0.00447275 1.01047)
(0 0.00406882 1.01048)
(0 0.00368637 1.01049)
(0 0.00330207 1.01049)
(0 0.00288949 1.01048)
(0 0.00247644 1.01048)
(0 0.0020026 1.01049)
(0 0.00174039 1.01048)
(0 0.000925089 1.0105)
(0 0.00375629 0.702093)
(0 0.00677758 0.970146)
(0 0.0062166 1.00768)
(0 0.00625998 1.01106)
(0 0.0058043 1.01127)
(0 0.00549435 1.0113)
(0 0.0052518 1.01132)
(0 0.00500274 1.01132)
(0 0.0047545 1.01131)
(0 0.00452437 1.0113)
(0 0.00426435 1.01128)
(0 0.00397747 1.01125)
(0 0.0037 1.01122)
(0 0.00338832 1.0112)
(0 0.00303546 1.01117)
(0 0.00268969 1.01114)
(0 0.00233504 1.01113)
(0 0.00187691 1.01111)
(0 0.00165444 1.01109)
(0 0.000904194 1.0111)
(0 0.0036429 0.682463)
(0 0.00710154 0.963326)
(0 0.00698142 1.00658)
(0 0.00721179 1.01134)
(0 0.00692591 1.01173)
(0 0.00666538 1.01176)
(0 0.00636554 1.01179)
(0 0.00603371 1.01182)
(0 0.00568091 1.01185)
(0 0.00528704 1.01188)
(0 0.00489398 1.0119)
(0 0.00452521 1.01193)
(0 0.00413042 1.01194)
(0 0.00372747 1.01194)
(0 0.00335259 1.01195)
(0 0.00296048 1.01195)
(0 0.00253038 1.01194)
(0 0.00204298 1.01195)
(0 0.00179859 1.01194)
(0 0.000968206 1.01195)
(0 0.00367453 0.66644)
(0 0.00678359 0.960862)
(0 0.00636395 1.00735)
(0 0.00639927 1.01236)
(0 0.0059681 1.01279)
(0 0.00567832 1.01284)
(0 0.0054578 1.01285)
(0 0.00523603 1.01284)
(0 0.00499035 1.01282)
(0 0.0047514 1.0128)
(0 0.00450165 1.01277)
(0 0.00419638 1.01274)
(0 0.00387655 1.01271)
(0 0.00355939 1.01269)
(0 0.00319629 1.01266)
(0 0.00280865 1.01263)
(0 0.00244483 1.01261)
(0 0.00197645 1.01259)
(0 0.00173707 1.01257)
(0 0.000958371 1.01257)
(0 0.00350966 0.64511)
(0 0.00714237 0.953731)
(0 0.00718836 1.00659)
(0 0.00739506 1.01288)
(0 0.00707724 1.01337)
(0 0.00678769 1.0134)
(0 0.00645767 1.01342)
(0 0.00608356 1.01346)
(0 0.00570907 1.01349)
(0 0.00532129 1.01352)
(0 0.00491513 1.01354)
(0 0.00453892 1.01356)
(0 0.0041771 1.01357)
(0 0.00378105 1.01357)
(0 0.00338495 1.01356)
(0 0.00300853 1.01357)
(0 0.00259343 1.01356)
(0 0.00208156 1.01355)
(0 0.00184663 1.01355)
(0 0.00101348 1.01356)
(0 0.00356605 0.628546)
(0 0.00675193 0.949563)
(0 0.00649437 1.00648)
(0 0.00654702 1.01362)
(0 0.0061602 1.01436)
(0 0.00590415 1.01444)
(0 0.00570273 1.01444)
(0 0.00550612 1.01443)
(0 0.00527089 1.01441)
(0 0.00500223 1.01439)
(0 0.00473065 1.01437)
(0 0.00442501 1.01435)
(0 0.00406541 1.01432)
(0 0.00370552 1.01429)
(0 0.00334829 1.01428)
(0 0.00295083 1.01425)
(0 0.00255089 1.01423)
(0 0.00206529 1.01422)
(0 0.00183082 1.0142)
(0 0.00102 1.0142)
(0 0.00338072 0.60556)
(0 0.00721095 0.942399)
(0 0.00742823 1.00627)
(0 0.00759228 1.01454)
(0 0.00722147 1.01521)
(0 0.00688251 1.01525)
(0 0.00652329 1.01527)
(0 0.00611971 1.0153)
(0 0.00572179 1.01532)
(0 0.00535185 1.01534)
(0 0.00497365 1.01535)
(0 0.00458523 1.01535)
(0 0.00422592 1.01534)
(0 0.00386396 1.01534)
(0 0.00346038 1.01532)
(0 0.00305788 1.0153)
(0 0.00266172 1.01529)
(0 0.00214803 1.01528)
(0 0.00189921 1.01527)
(0 0.00105407 1.01528)
(0 0.00340205 0.58826)
(0 0.0066448 0.935954)
(0 0.00656593 1.00502)
(0 0.00666902 1.01494)
(0 0.00634874 1.01608)
(0 0.00613589 1.0162)
(0 0.00594377 1.0162)
(0 0.00574534 1.01619)
(0 0.00551223 1.01617)
(0 0.00521928 1.01616)
(0 0.00489622 1.01614)
(0 0.00457488 1.01612)
(0 0.00422008 1.01611)
(0 0.00382372 1.01609)
(0 0.00343627 1.01607)
(0 0.00305291 1.01606)
(0 0.00264792 1.01605)
(0 0.00212816 1.01603)
(0 0.00190526 1.01602)
(0 0.00108162 1.01603)
(0 0.00328205 0.564142)
(0 0.00730082 0.929173)
(0 0.00768281 1.00538)
(0 0.00778494 1.01619)
(0 0.00734312 1.01717)
(0 0.00694734 1.01723)
(0 0.00656822 1.01725)
(0 0.0061675 1.01727)
(0 0.00576805 1.01728)
(0 0.00540334 1.01728)
(0 0.00506437 1.01727)
(0 0.00470483 1.01725)
(0 0.00432534 1.01722)
(0 0.00395904 1.0172)
(0 0.00358091 1.01718)
(0 0.0031663 1.01715)
(0 0.00274487 1.01712)
(0 0.00222515 1.01711)
(0 0.00197863 1.0171)
(0 0.001108 1.01709)
(0 0.00311863 0.545204)
(0 0.006476 0.919584)
(0 0.00662269 1.00286)
(0 0.00680287 1.01636)
(0 0.00656331 1.01805)
(0 0.00638811 1.01822)
(0 0.00618589 1.01822)
(0 0.00594362 1.0182)
(0 0.00567112 1.01819)
(0 0.00535962 1.01817)
(0 0.00500208 1.01816)
(0 0.00463036 1.01814)
(0 0.00427242 1.01813)
(0 0.00389716 1.01811)
(0 0.00348999 1.01809)
(0 0.00308815 1.01807)
(0 0.00271013 1.01805)
(0 0.00219055 1.01803)
(0 0.00195989 1.01802)
(0 0.00112795 1.01802)
(0 0.003269 0.521748)
(0 0.0073267 0.914042)
(0 0.00780579 1.00374)
(0 0.00783982 1.01774)
(0 0.00734211 1.01919)
(0 0.00691864 1.0193)
(0 0.00654986 1.01932)
(0 0.00619317 1.01933)
(0 0.00583869 1.01933)
(0 0.0054876 1.01931)
(0 0.00515169 1.01929)
(0 0.00481998 1.01927)
(0 0.00445423 1.01924)
(0 0.00405576 1.0192)
(0 0.003659 1.01917)
(0 0.00325989 1.01915)
(0 0.00283053 1.01912)
(0 0.00228037 1.01909)
(0 0.00204622 1.01907)
(0 0.00116614 1.01907)
(0 0.0027005 0.498634)
(0 0.00635659 0.899954)
(0 0.00681507 0.999745)
(0 0.00706014 1.01776)
(0 0.00684923 1.02018)
(0 0.00665713 1.02042)
(0 0.00640961 1.02042)
(0 0.00610293 1.0204)
(0 0.00576619 1.02038)
(0 0.00541859 1.02037)
(0 0.00505873 1.02035)
(0 0.00467614 1.02033)
(0 0.00428657 1.0203)
(0 0.00391189 1.02027)
(0 0.00353219 1.02024)
(0 0.0031258 1.02021)
(0 0.00273838 1.02018)
(0 0.00222295 1.02015)
(0 0.00200885 1.02013)
(0 0.00117541 1.02012)
(0 0.00320203 0.479802)
(0 0.00712391 0.896847)
(0 0.00764047 1.00116)
(0 0.00765574 1.01919)
(0 0.00719552 1.02135)
(0 0.00682149 1.02153)
(0 0.0065043 1.02153)
(0 0.00619623 1.02152)
(0 0.00588744 1.0215)
(0 0.00556963 1.02147)
(0 0.00522993 1.02144)
(0 0.00487417 1.02141)
(0 0.00450975 1.02138)
(0 0.00411916 1.02135)
(0 0.00369796 1.02132)
(0 0.00327763 1.02129)
(0 0.00286463 1.02127)
(0 0.00231445 1.02126)
(0 0.00207591 1.02124)
(0 0.00119951 1.02123)
(0 0.00236949 0.448497)
(0 0.00630865 0.87717)
(0 0.0070498 0.99548)
(0 0.0072909 1.0189)
(0 0.00701802 1.02229)
(0 0.00674732 1.02265)
(0 0.00644108 1.02266)
(0 0.00610331 1.02264)
(0 0.00575416 1.02262)
(0 0.00540134 1.02259)
(0 0.00504984 1.02255)
(0 0.00469927 1.02251)
(0 0.00433664 1.02247)
(0 0.00395876 1.02242)
(0 0.00357733 1.02237)
(0 0.00318885 1.02233)
(0 0.00280824 1.02229)
(0 0.00227044 1.02226)
(0 0.00206319 1.02224)
(0 0.00122933 1.02223)
(0 0.00266487 0.439014)
(0 0.00661741 0.876843)
(0 0.00731923 0.9971)
(0 0.00743489 1.0203)
(0 0.00707525 1.02348)
(0 0.00676919 1.02377)
(0 0.00648794 1.02376)
(0 0.00618756 1.02373)
(0 0.00586782 1.02369)
(0 0.00553331 1.02365)
(0 0.00518584 1.02362)
(0 0.00482219 1.02358)
(0 0.00444297 1.02353)
(0 0.00405697 1.02349)
(0 0.00366488 1.02345)
(0 0.00326353 1.02341)
(0 0.00285987 1.02337)
(0 0.00232065 1.02335)
(0 0.00210178 1.02332)
(0 0.00123467 1.02331)
(0 0.00213229 0.397265)
(0 0.00611148 0.85217)
(0 0.00697326 0.990011)
(0 0.00715204 1.01961)
(0 0.00683922 1.0242)
(0 0.00656249 1.02471)
(0 0.00627364 1.02472)
(0 0.00596543 1.02468)
(0 0.00564905 1.02463)
(0 0.0053265 1.02457)
(0 0.00499543 1.02452)
(0 0.00465322 1.02446)
(0 0.00430031 1.0244)
(0 0.00393693 1.02434)
(0 0.003559 1.02429)
(0 0.00316637 1.02423)
(0 0.00280189 1.02418)
(0 0.00227146 1.02415)
(0 0.00207938 1.02411)
(0 0.00126517 1.0241)
(0 3.79233e-05 0.995512)
(0 3.24317e-05 0.999621)
(0 -7.07994e-07 0.99997)
(0 -1.70613e-06 1.00004)
(0 -5.38032e-06 1.00009)
(0 -2.24298e-06 1.0001)
(0 4.14587e-06 1.0001)
(0 1.0888e-05 1.0001)
(0 2.0106e-05 1.0001)
(0 2.59019e-05 1.00009)
(0 3.44349e-05 1.00009)
(0 3.88988e-05 1.00009)
(0 4.15335e-05 1.00009)
(0 4.2558e-05 1.00008)
(0 4.30196e-05 1.00008)
(0 4.01762e-05 1.00008)
(0 3.75874e-05 1.00007)
(0 3.26251e-05 1.00007)
(0 2.61903e-05 1.00007)
(0 1.57187e-05 1.00007)
(0 -0.000120897 1.0044)
(0 -0.000146273 1.00034)
(0 -2.41139e-05 1.00004)
(0 6.16951e-06 0.99995)
(0 5.1556e-06 0.999901)
(0 8.60858e-06 0.999886)
(0 1.17163e-05 0.999885)
(0 1.89581e-05 0.999889)
(0 2.29525e-05 0.999893)
(0 3.06701e-05 0.999901)
(0 3.34458e-05 0.999906)
(0 3.70237e-05 0.999913)
(0 4.09592e-05 0.999919)
(0 4.18996e-05 0.999924)
(0 3.94097e-05 0.999929)
(0 3.57215e-05 0.999935)
(0 3.11996e-05 0.999941)
(0 2.48638e-05 0.999943)
(0 1.54485e-05 0.999947)
(0 1.10068e-06 0.999952)
(0 -5.68564e-06 0.995671)
(0 -2.42455e-05 0.999652)
(0 -2.43633e-05 0.999965)
(0 -9.73043e-06 1.00002)
(0 -2.60526e-08 1.00005)
(0 1.64614e-05 1.00006)
(0 3.73831e-05 1.00007)
(0 5.84685e-05 1.00007)
(0 8.26408e-05 1.00008)
(0 0.000101725 1.00008)
(0 0.000119056 1.00009)
(0 0.000131441 1.00009)
(0 0.000137122 1.0001)
(0 0.000138123 1.0001)
(0 0.000135669 1.0001)
(0 0.000128886 1.0001)
(0 0.000113647 1.0001)
(0 9.47797e-05 1.0001)
(0 7.73535e-05 1.0001)
(0 3.75882e-05 1.0001)
(0 -0.000120322 1.00409)
(0 -0.000154385 1.00022)
(0 -5.46172e-05 0.99998)
(0 -2.716e-05 0.999894)
(0 -5.98765e-06 0.999846)
(0 1.86849e-05 0.999839)
(0 4.06592e-05 0.999848)
(0 6.51909e-05 0.999864)
(0 8.42918e-05 0.999882)
(0 0.000103869 0.999901)
(0 0.00011833 0.999919)
(0 0.000128378 0.999936)
(0 0.000133772 0.999951)
(0 0.000133517 0.999966)
(0 0.000127679 0.999979)
(0 0.000114739 0.999988)
(0 0.000101298 0.999998)
(0 8.48301e-05 1)
(0 5.66393e-05 1.00001)
(0 1.66712e-05 1.00002)
(0 9.00407e-06 0.995759)
(0 -1.42827e-06 0.999596)
(0 -3.39936e-05 0.999874)
(0 -2.53964e-05 0.999927)
(0 1.46694e-05 0.999964)
(0 5.90712e-05 0.999986)
(0 0.000100072 1.00001)
(0 0.000137783 1.00003)
(0 0.000175066 1.00005)
(0 0.000204424 1.00007)
(0 0.000226067 1.00009)
(0 0.000240956 1.00011)
(0 0.00024747 1.00012)
(0 0.000245696 1.00013)
(0 0.000234267 1.00015)
(0 0.000218429 1.00016)
(0 0.000192176 1.00016)
(0 0.000158402 1.00017)
(0 0.000129302 1.00017)
(0 6.10485e-05 1.00017)
(0 -8.83664e-05 1.00375)
(0 -0.000114302 1.00004)
(0 -5.81658e-05 0.999849)
(0 -3.92848e-05 0.999784)
(0 1.26536e-05 0.999758)
(0 6.76686e-05 0.999767)
(0 0.000113348 0.999796)
(0 0.000154963 0.999833)
(0 0.000186381 0.999871)
(0 0.000212484 0.999909)
(0 0.000231799 0.999945)
(0 0.000242908 0.999978)
(0 0.000244896 1.00001)
(0 0.000239025 1.00003)
(0 0.000227433 1.00006)
(0 0.000204733 1.00007)
(0 0.000177087 1.00009)
(0 0.000147988 1.0001)
(0 0.000105235 1.00011)
(0 3.73317e-05 1.00012)
(0 2.71128e-05 0.995801)
(0 3.32932e-05 0.999475)
(0 -1.22324e-05 0.999711)
(0 4.91642e-06 0.999779)
(0 7.56247e-05 0.999839)
(0 0.000148258 0.999884)
(0 0.000211956 0.999928)
(0 0.000265211 0.999973)
(0 0.000310594 1.00002)
(0 0.000344195 1.00006)
(0 0.000365491 1.0001)
(0 0.000376143 1.00014)
(0 0.000376584 1.00017)
(0 0.00036674 1.0002)
(0 0.000343506 1.00022)
(0 0.00031436 1.00024)
(0 0.000275731 1.00025)
(0 0.000225345 1.00026)
(0 0.000180891 1.00027)
(0 8.40708e-05 1.00028)
(0 -7.54958e-05 1.00338)
(0 -8.8945e-05 0.999794)
(0 -2.22772e-05 0.999651)
(0 2.14634e-05 0.999625)
(0 0.000102798 0.999637)
(0 0.000181248 0.999678)
(0 0.000246516 0.999736)
(0 0.000300014 0.999799)
(0 0.000337755 0.999864)
(0 0.000364254 0.999925)
(0 0.000380337 0.999983)
(0 0.000385737 1.00003)
(0 0.000379081 1.00008)
(0 0.000362096 1.00012)
(0 0.000339005 1.00015)
(0 0.000304732 1.00018)
(0 0.000260883 1.0002)
(0 0.000216353 1.00022)
(0 0.000160256 1.00023)
(0 6.19579e-05 1.00025)
(0 1.4228e-05 0.995784)
(0 3.76823e-05 0.99929)
(0 5.19193e-05 0.999492)
(0 0.000120094 0.999589)
(0 0.00021839 0.999686)
(0 0.000308159 0.999769)
(0 0.000385829 0.999846)
(0 0.000447679 0.999921)
(0 0.00049462 0.999994)
(0 0.000524904 1.00006)
(0 0.00053923 1.00013)
(0 0.000538572 1.00018)
(0 0.000526156 1.00023)
(0 0.000502629 1.00027)
(0 0.000464155 1.00031)
(0 0.000416929 1.00034)
(0 0.000363262 1.00036)
(0 0.000296727 1.00038)
(0 0.000235148 1.00039)
(0 0.00010784 1.00041)
(0 -9.66696e-05 1.00296)
(0 -8.83023e-05 0.999503)
(0 7.11588e-05 0.999417)
(0 0.000183774 0.999439)
(0 0.000291647 0.9995)
(0 0.00037768 0.999584)
(0 0.000447413 0.999678)
(0 0.000502375 0.999771)
(0 0.000538341 0.999863)
(0 0.000558728 0.999948)
(0 0.000563872 1.00003)
(0 0.000556403 1.0001)
(0 0.000535558 1.00016)
(0 0.00050297 1.00021)
(0 0.000463442 1.00026)
(0 0.000414352 1.0003)
(0 0.000352527 1.00033)
(0 0.000289773 1.00035)
(0 0.000221083 1.00037)
(0 9.04505e-05 1.00039)
(0 -2.10573e-05 0.995691)
(0 4.37559e-05 0.999057)
(0 0.000188336 0.999261)
(0 0.000335507 0.999396)
(0 0.000459155 0.999537)
(0 0.000550439 0.999663)
(0 0.000625044 0.999777)
(0 0.000682175 0.999886)
(0 0.000721621 0.999987)
(0 0.000740548 1.00008)
(0 0.000741786 1.00016)
(0 0.00072477 1.00024)
(0 0.000694152 1.0003)
(0 0.000652035 1.00036)
(0 0.000596135 1.00041)
(0 0.000528935 1.00045)
(0 0.000456925 1.00048)
(0 0.00037321 1.00051)
(0 0.000293791 1.00053)
(0 0.000133436 1.00055)
(0 -0.000121139 1.00248)
(0 -4.01644e-05 0.999177)
(0 0.000267384 0.999181)
(0 0.000450168 0.99926)
(0 0.000577063 0.999371)
(0 0.000656776 0.999498)
(0 0.000715262 0.999631)
(0 0.000757875 0.999758)
(0 0.000780069 0.999878)
(0 0.000785416 0.999987)
(0 0.00077268 1.00009)
(0 0.000747277 1.00017)
(0 0.000708658 1.00025)
(0 0.000657482 1.00031)
(0 0.000598233 1.00037)
(0 0.00053175 1.00042)
(0 0.000451786 1.00046)
(0 0.000369274 1.00049)
(0 0.000287109 1.00051)
(0 0.000121898 1.00054)
(0 -2.36536e-05 0.995486)
(0 0.000154053 0.99878)
(0 0.000451554 0.999035)
(0 0.000651889 0.999223)
(0 0.000785277 0.999405)
(0 0.000866288 0.999571)
(0 0.000925723 0.999725)
(0 0.000965011 0.999868)
(0 0.000985287 0.999998)
(0 0.000982875 1.00012)
(0 0.000963441 1.00022)
(0 0.000925546 1.00031)
(0 0.000874031 1.00039)
(0 0.000811068 1.00046)
(0 0.000735772 1.00052)
(0 0.000647625 1.00056)
(0 0.000555516 1.00061)
(0 0.000454367 1.00064)
(0 0.000357935 1.00067)
(0 0.000161889 1.0007)
(0 -6.71441e-05 1.00189)
(0 0.00018144 0.998822)
(0 0.000618654 0.998954)
(0 0.000817683 0.999101)
(0 0.000938842 0.999258)
(0 0.00100303 0.999425)
(0 0.00104074 0.999596)
(0 0.00105935 0.999755)
(0 0.00105599 0.999902)
(0 0.00103702 1.00003)
(0 0.000999628 1.00015)
(0 0.000951262 1.00025)
(0 0.000891701 1.00034)
(0 0.000820533 1.00042)
(0 0.000740098 1.00049)
(0 0.000653407 1.00054)
(0 0.000554379 1.00059)
(0 0.000451294 1.00063)
(0 0.000355139 1.00066)
(0 0.0001547 1.00069)
(0 0.00010554 0.995146)
(0 0.000507835 0.998476)
(0 0.000888693 0.998821)
(0 0.00106545 0.999073)
(0 0.00117738 0.999297)
(0 0.00123932 0.999502)
(0 0.00127543 0.99969)
(0 0.00128596 0.999863)
(0 0.00127688 1.00002)
(0 0.00124518 1.00016)
(0 0.0011995 1.00028)
(0 0.00113736 1.00039)
(0 0.00106225 1.00048)
(0 0.00097651 1.00056)
(0 0.000880517 1.00063)
(0 0.000771327 1.00069)
(0 0.000657171 1.00073)
(0 0.000536489 1.00078)
(0 0.000424225 1.00081)
(0 0.000192164 1.00084)
(0 0.000175167 1.00118)
(0 0.00071056 0.998457)
(0 0.00115104 0.998736)
(0 0.00128089 0.998955)
(0 0.00136346 0.999163)
(0 0.00139963 0.999373)
(0 0.00140677 0.999576)
(0 0.00139249 0.999763)
(0 0.00135504 0.999933)
(0 0.00130505 1.00009)
(0 0.00123913 1.00022)
(0 0.00116496 1.00034)
(0 0.00108181 1.00044)
(0 0.000988637 1.00053)
(0 0.00088613 1.00061)
(0 0.000777866 1.00067)
(0 0.00065907 1.00073)
(0 0.000534524 1.00077)
(0 0.000423542 1.00081)
(0 0.000187869 1.00084)
(0 0.000476891 0.994671)
(0 0.00122205 0.998152)
(0 0.00150474 0.998601)
(0 0.00157457 0.998924)
(0 0.00163342 0.999204)
(0 0.00165696 0.999451)
(0 0.00165675 0.999671)
(0 0.00163034 0.99987)
(0 0.00158611 1.00005)
(0 0.00152071 1.00021)
(0 0.00144494 1.00035)
(0 0.00135601 1.00047)
(0 0.0012557 1.00057)
(0 0.00114589 1.00066)
(0 0.00102776 1.00074)
(0 0.000897749 1.00081)
(0 0.000761291 1.00087)
(0 0.000619696 1.00091)
(0 0.000492766 1.00095)
(0 0.000224429 1.00098)
(0 0.000700421 1.00037)
(0 0.00163223 0.998069)
(0 0.00185444 0.99849)
(0 0.00184281 0.99879)
(0 0.0018555 0.999065)
(0 0.00183882 0.999322)
(0 0.00179957 0.999559)
(0 0.00174417 0.999773)
(0 0.00166866 0.999966)
(0 0.00158461 1.00014)
(0 0.00148746 1.00029)
(0 0.0013847 1.00042)
(0 0.00127579 1.00054)
(0 0.00115923 1.00064)
(0 0.00103407 1.00073)
(0 0.000903134 1.0008)
(0 0.00076391 1.00086)
(0 0.00061769 1.00091)
(0 0.000491618 1.00095)
(0 0.000221051 1.00099)
(0 0.00115449 0.994089)
(0 0.00233609 0.997787)
(0 0.00228005 0.998328)
(0 0.00218784 0.998737)
(0 0.00216145 0.999086)
(0 0.00211864 0.999385)
(0 0.00206421 0.999644)
(0 0.00199122 0.999872)
(0 0.00190766 1.00007)
(0 0.00180683 1.00025)
(0 0.00169875 1.00041)
(0 0.00158052 1.00055)
(0 0.00145308 1.00067)
(0 0.00131806 1.00077)
(0 0.00117649 1.00086)
(0 0.00102516 1.00094)
(0 0.000865846 1.001)
(0 0.000701619 1.00105)
(0 0.000560679 1.00109)
(0 0.000257237 1.00113)
(0 0.00153161 0.999487)
(0 0.00293413 0.997625)
(0 0.00270106 0.998175)
(0 0.00251155 0.998567)
(0 0.00242306 0.998918)
(0 0.00232618 0.999235)
(0 0.00222183 0.999519)
(0 0.0021142 0.999768)
(0 0.00199507 0.999988)
(0 0.00187414 1.00018)
(0 0.00174421 1.00035)
(0 0.00161097 1.00051)
(0 0.00147415 1.00064)
(0 0.00133235 1.00075)
(0 0.00118366 1.00085)
(0 0.00102912 1.00093)
(0 0.000868231 1.001)
(0 0.000699479 1.00106)
(0 0.000557723 1.0011)
(0 0.000253264 1.00115)
)
;

boundaryField
{
    movingWall
    {
        type            zeroGradient;
    }
    leftSide
    {
        type            fixedValue;
        value           uniform (0 0 1);
    }
    rightSide
    {
        type            zeroGradient;
    }
    bottomWall
    {
        type            noSlip;
    }
    bottomWall2
    {
        type            zeroGradient;
    }
    frontAndBack
    {
        type            empty;
    }
}


// ************************************************************************* //
