/*--------------------------------*- C++ -*----------------------------------*\
  =========                 |
  \\      /  F ield         | OpenFOAM: The Open Source CFD Toolbox
   \\    /   O peration     | Website:  https://openfoam.org
    \\  /    A nd           | Version:  10
     \\/     M anipulation  |
\*---------------------------------------------------------------------------*/
FoamFile
{
    format      ascii;
    class       volScalarField;
    location    "0.9";
    object      p;
}
// * * * * * * * * * * * * * * * * * * * * * * * * * * * * * * * * * * * * * //

dimensions      [0 2 -2 0 0 0 0];

internalField   nonuniform List<scalar> 
1200
(
-5.1998e-11
-0.00123762
-0.00181618
-0.00228352
-0.00269276
-0.00305188
-0.00336779
-0.00364747
-0.00389755
-0.00412322
-0.00432838
-0.00451512
-0.00468452
-0.00483738
-0.00497437
-0.00509541
-0.00520034
-0.00528841
-0.00535668
-0.00542191
-0.000335691
-0.00139932
-0.00189687
-0.00235002
-0.00276194
-0.00312905
-0.00345392
-0.00374211
-0.00399955
-0.00423151
-0.00444155
-0.00463209
-0.00480485
-0.00496085
-0.00510018
-0.00522338
-0.00533059
-0.00542022
-0.00549071
-0.00555793
-0.00118947
-0.00187719
-0.00221361
-0.0025984
-0.00297427
-0.0033193
-0.0036306
-0.00391068
-0.00416347
-0.00439228
-0.00460003
-0.00478898
-0.00496052
-0.00511532
-0.0052541
-0.00537715
-0.00548385
-0.00557373
-0.00564474
-0.00571228
-0.00225416
-0.00258749
-0.00273513
-0.0030181
-0.00332483
-0.00361955
-0.00389566
-0.00415138
-0.004387
-0.00460368
-0.00480239
-0.00498403
-0.00514969
-0.00530018
-0.00543549
-0.00555559
-0.00566055
-0.00574889
-0.00581889
-0.00588673
-0.0032825
-0.00339738
-0.00339451
-0.00357083
-0.00379045
-0.00401724
-0.00424205
-0.00445976
-0.00466757
-0.0048635
-0.00504633
-0.00521585
-0.00537196
-0.00551436
-0.00564327
-0.00575883
-0.00585983
-0.00594544
-0.00601381
-0.00608096
-0.00415204
-0.00417974
-0.00409958
-0.00419226
-0.00432833
-0.00448393
-0.00465117
-0.00482395
-0.00499683
-0.00516566
-0.00532763
-0.00548077
-0.00562376
-0.00575598
-0.00587684
-0.00598528
-0.00608124
-0.00616343
-0.00622918
-0.00629587
-0.00484298
-0.0048652
-0.00477531
-0.0048205
-0.00489465
-0.00498982
-0.00510326
-0.00523049
-0.00536619
-0.0055051
-0.00564282
-0.00577653
-0.0059042
-0.00602399
-0.00613452
-0.00623539
-0.00632513
-0.00640217
-0.00646459
-0.00652977
-0.00538438
-0.00543227
-0.00537281
-0.00540503
-0.00544616
-0.00550042
-0.00557198
-0.00566059
-0.00576229
-0.00587196
-0.00598545
-0.00609926
-0.00621032
-0.00631662
-0.00641682
-0.00650865
-0.00659099
-0.00666304
-0.00672091
-0.0067836
-0.00583239
-0.00590302
-0.00588468
-0.00592697
-0.00595881
-0.00599282
-0.00603923
-0.00610004
-0.00617418
-0.00625873
-0.00634975
-0.00644386
-0.00653848
-0.00663128
-0.00671968
-0.00680246
-0.00687816
-0.00694401
-0.00699738
-0.00705788
-0.00623452
-0.00631266
-0.00632486
-0.00638495
-0.00642206
-0.0064526
-0.00648939
-0.00653576
-0.00659246
-0.006658
-0.00673063
-0.00680826
-0.00688798
-0.00696728
-0.00704483
-0.00711843
-0.00718594
-0.00724673
-0.00729579
-0.00735284
-0.00662664
-0.00669892
-0.00672542
-0.00679807
-0.00684487
-0.00688175
-0.00691961
-0.00696193
-0.00700973
-0.00706371
-0.00712336
-0.00718714
-0.00725384
-0.00732217
-0.00738944
-0.0074539
-0.00751501
-0.00756972
-0.00761379
-0.00766873
-0.00702848
-0.00708877
-0.00711608
-0.00719142
-0.00724465
-0.00728972
-0.00733379
-0.00737857
-0.00742532
-0.00747456
-0.0075266
-0.00758185
-0.0076395
-0.00769785
-0.00775615
-0.00781356
-0.00786728
-0.00791633
-0.00795592
-0.00800647
-0.00744736
-0.00749569
-0.00751829
-0.0075885
-0.00764229
-0.00769232
-0.00774165
-0.00779075
-0.00783929
-0.00788773
-0.00793704
-0.00798715
-0.00803803
-0.00808996
-0.00814202
-0.00819209
-0.00824035
-0.00828513
-0.00831999
-0.00836809
-0.00788843
-0.00792778
-0.0079446
-0.00800546
-0.0080547
-0.00810453
-0.00815633
-0.00820827
-0.00825942
-0.00830964
-0.00835843
-0.0084065
-0.00845455
-0.00850203
-0.00854818
-0.00859397
-0.00863775
-0.00867734
-0.00870874
-0.00875355
-0.00834987
-0.00838415
-0.00839805
-0.00845016
-0.00849223
-0.00853798
-0.00858769
-0.00863948
-0.00869117
-0.00874128
-0.00879027
-0.0088381
-0.00888425
-0.0089289
-0.00897317
-0.00901526
-0.00905458
-0.00909216
-0.00912019
-0.00916192
-0.00883119
-0.00886261
-0.00887608
-0.00892117
-0.00895653
-0.00899663
-0.00904266
-0.00909173
-0.00914143
-0.00919122
-0.00923972
-0.00928628
-0.00933148
-0.00937565
-0.00941703
-0.00945644
-0.00949482
-0.00952889
-0.00955416
-0.00959451
-0.00933497
-0.00936549
-0.00938043
-0.00942162
-0.00945137
-0.00948625
-0.00952646
-0.00957033
-0.00961649
-0.00966268
-0.00970856
-0.00975419
-0.00979857
-0.0098403
-0.00988081
-0.00991986
-0.00995491
-0.00998793
-0.010012
-0.0100491
-0.00985294
-0.00988215
-0.00989956
-0.00993872
-0.00996636
-0.00999767
-0.0100339
-0.0100737
-0.0101149
-0.0101575
-0.010201
-0.0102438
-0.0102854
-0.0103267
-0.0103664
-0.0104026
-0.0104379
-0.0104702
-0.0104922
-0.010529
-0.0104014
-0.0104302
-0.0104492
-0.0104876
-0.0105131
-0.0105421
-0.0105743
-0.0106085
-0.0106452
-0.0106831
-0.0107215
-0.0107605
-0.0108001
-0.0108384
-0.0108746
-0.0109108
-0.0109446
-0.010975
-0.0109972
-0.0110324
-0.0109569
-0.0109839
-0.0110051
-0.0110431
-0.0110702
-0.0110991
-0.0111303
-0.0111636
-0.0111974
-0.0112317
-0.0112673
-0.0113039
-0.0113398
-0.0113751
-0.0114113
-0.011445
-0.0114763
-0.0115075
-0.0115284
-0.0115621
-0.0115517
-0.0115784
-0.0115998
-0.0116372
-0.011663
-0.0116908
-0.0117206
-0.0117504
-0.0117806
-0.0118119
-0.0118436
-0.0118751
-0.0119074
-0.011941
-0.0119724
-0.012003
-0.0120348
-0.0120633
-0.0120829
-0.0121171
-0.0121495
-0.0121739
-0.0121971
-0.012234
-0.0122622
-0.0122923
-0.0123229
-0.0123542
-0.0123854
-0.0124159
-0.0124459
-0.0124766
-0.0125078
-0.0125368
-0.0125667
-0.0125974
-0.0126245
-0.0126518
-0.0126715
-0.0127024
-0.0127929
-0.0128178
-0.0128403
-0.0128761
-0.0129025
-0.0129302
-0.0129596
-0.0129884
-0.0130165
-0.0130444
-0.0130729
-0.0131015
-0.0131284
-0.013157
-0.0131858
-0.0132112
-0.0132379
-0.013265
-0.0132817
-0.0133131
-0.013443
-0.0134648
-0.0134889
-0.013524
-0.0135524
-0.0135832
-0.0136144
-0.0136455
-0.013676
-0.0137059
-0.0137345
-0.0137612
-0.0137895
-0.0138168
-0.0138407
-0.0138664
-0.0138917
-0.0139139
-0.0139302
-0.0139598
-0.0141436
-0.0141668
-0.014189
-0.0142217
-0.0142473
-0.014274
-0.0143021
-0.01433
-0.0143577
-0.014385
-0.0144118
-0.0144405
-0.0144674
-0.0144918
-0.0145189
-0.0145444
-0.0145662
-0.0145906
-0.0146061
-0.0146333
-0.0148525
-0.0148719
-0.0148958
-0.0149291
-0.0149568
-0.0149878
-0.0150195
-0.0150506
-0.0150801
-0.0151082
-0.015137
-0.0151629
-0.0151871
-0.0152139
-0.0152371
-0.0152572
-0.0152804
-0.0153023
-0.0153152
-0.0153434
-0.015627
-0.0156487
-0.0156699
-0.0156984
-0.0157212
-0.0157452
-0.0157712
-0.0157977
-0.0158248
-0.015853
-0.0158786
-0.0159041
-0.0159324
-0.0159568
-0.0159793
-0.0160048
-0.0160267
-0.0160465
-0.0160608
-0.0160869
-0.0163928
-0.0164102
-0.0164349
-0.0164683
-0.0164965
-0.0165273
-0.0165574
-0.016587
-0.0166162
-0.0166421
-0.0166683
-0.0166956
-0.0167175
-0.0167387
-0.0167632
-0.0167836
-0.0168023
-0.0168249
-0.0168379
-0.0168622
-0.0172596
-0.0172796
-0.0172986
-0.0173226
-0.0173421
-0.0173623
-0.0173849
-0.0174088
-0.0174313
-0.0174569
-0.0174843
-0.0175075
-0.0175322
-0.0175592
-0.01758
-0.0175987
-0.0176204
-0.0176399
-0.0176512
-0.0176772
-0.0180987
-0.0181143
-0.0181393
-0.0181729
-0.0182007
-0.0182298
-0.0182567
-0.0182799
-0.018304
-0.0183264
-0.0183444
-0.0183662
-0.0183905
-0.0184097
-0.0184301
-0.0184542
-0.0184732
-0.0184913
-0.0185045
-0.0185276
-0.0190545
-0.0190704
-0.0190848
-0.0191027
-0.0191186
-0.0191358
-0.0191544
-0.0191763
-0.019197
-0.0192156
-0.0192388
-0.0192619
-0.019279
-0.0192984
-0.0193207
-0.0193377
-0.0193547
-0.0193765
-0.0193887
-0.0194117
-0.0200148
-0.0200291
-0.0200522
-0.0200823
-0.0201049
-0.0201267
-0.0201472
-0.0201619
-0.0201734
-0.0201881
-0.0202011
-0.0202104
-0.0202247
-0.020242
-0.0202545
-0.0202679
-0.0202853
-0.020302
-0.0203127
-0.0203371
-0.0210254
-0.0210362
-0.0210456
-0.0210577
-0.0210704
-0.0210873
-0.0211043
-0.0211236
-0.0211465
-0.0211652
-0.021179
-0.021196
-0.0212122
-0.0212216
-0.0212318
-0.0212455
-0.0212556
-0.0212661
-0.0212729
-0.0212923
-0.0221179
-0.0221316
-0.0221527
-0.0221771
-0.0221901
-0.0221978
-0.0222047
-0.0222108
-0.0222126
-0.0222149
-0.0222238
-0.0222323
-0.0222359
-0.0222424
-0.0222519
-0.0222573
-0.0222623
-0.0222729
-0.0222766
-0.0222921
-0.0232142
-0.0232146
-0.0232132
-0.0232156
-0.0232206
-0.0232325
-0.0232454
-0.0232546
-0.0232642
-0.0232767
-0.0232853
-0.0232893
-0.0232965
-0.0233057
-0.0233105
-0.0233146
-0.0233223
-0.0233308
-0.0233334
-0.02335
-0.0244003
-0.02441
-0.0244174
-0.0244205
-0.0244118
-0.0243985
-0.0243837
-0.0243734
-0.0243679
-0.0243618
-0.0243563
-0.0243573
-0.0243612
-0.0243619
-0.0243638
-0.0243699
-0.0243751
-0.0243811
-0.0243833
-0.024398
-0.025575
-0.0255661
-0.0255591
-0.0255568
-0.0255527
-0.025551
-0.0255498
-0.0255453
-0.0255351
-0.0255228
-0.0255132
-0.0255031
-0.0254901
-0.02548
-0.0254755
-0.0254722
-0.02547
-0.0254744
-0.0254752
-0.0254871
-0.0268612
-0.0268474
-0.0268085
-0.026767
-0.0267246
-0.0266897
-0.0266609
-0.0266373
-0.0266197
-0.0266076
-0.0265963
-0.0265833
-0.0265725
-0.026565
-0.0265569
-0.0265484
-0.0265435
-0.0265438
-0.0265401
-0.026549
-0.0279117
-0.0279115
-0.0279058
-0.0278923
-0.0278669
-0.0278371
-0.0278049
-0.0277721
-0.0277403
-0.0277089
-0.0276784
-0.0276519
-0.0276298
-0.0276091
-0.0275891
-0.0275719
-0.0275577
-0.0275479
-0.0275353
-0.0275385
-0.0290004
-0.0289777
-0.0289087
-0.0288485
-0.0287959
-0.028759
-0.028727
-0.0286958
-0.0286647
-0.0286334
-0.0286029
-0.0285734
-0.0285441
-0.0285159
-0.0284909
-0.0284691
-0.0284472
-0.028438
-0.0284198
-0.0284239
-0.00380744
-0.00376658
-0.00375315
-0.00375841
-0.00376208
-0.00376725
-0.00377498
-0.00378693
-0.00380321
-0.00382485
-0.00385117
-0.00388159
-0.00391558
-0.0039518
-0.00398867
-0.00402495
-0.00405931
-0.00408986
-0.00411509
-0.00413275
-0.00378451
-0.00376782
-0.00376064
-0.0037565
-0.00375601
-0.00375951
-0.00376734
-0.00377998
-0.00379804
-0.00382155
-0.00384971
-0.00388235
-0.00391837
-0.00395628
-0.00399499
-0.00403315
-0.00406871
-0.0041004
-0.00412711
-0.00414646
-0.0037442
-0.00374594
-0.00374515
-0.00373658
-0.00373432
-0.00373944
-0.00375035
-0.0037674
-0.00379039
-0.0038185
-0.00385152
-0.00388844
-0.00392782
-0.00396891
-0.00401058
-0.00405073
-0.00408794
-0.00412129
-0.00414911
-0.00417023
-0.00368961
-0.00370226
-0.00370758
-0.0036986
-0.00369794
-0.00370684
-0.0037238
-0.00374789
-0.00377814
-0.00381388
-0.00385397
-0.00389706
-0.00394222
-0.00398833
-0.00403373
-0.0040772
-0.00411736
-0.0041521
-0.00418083
-0.00420348
-0.00362688
-0.0036435
-0.00365296
-0.0036483
-0.00365298
-0.00366844
-0.00369345
-0.00372636
-0.00376581
-0.00381006
-0.00385813
-0.00390899
-0.00396096
-0.00401252
-0.00406265
-0.00411028
-0.00415378
-0.00419158
-0.0042224
-0.00424646
-0.00355579
-0.00356894
-0.00357924
-0.00358385
-0.00359875
-0.00362381
-0.00365923
-0.00370323
-0.00375337
-0.00380783
-0.00386531
-0.00392422
-0.0039834
-0.00404166
-0.00409721
-0.00414869
-0.00419559
-0.00423667
-0.00427057
-0.00429776
-0.00347477
-0.00348109
-0.003491
-0.00350742
-0.00353677
-0.00357527
-0.00362343
-0.00367966
-0.0037419
-0.00380802
-0.00387586
-0.00394385
-0.00401084
-0.00407562
-0.00413694
-0.00419367
-0.00424423
-0.00428783
-0.00432415
-0.004354
-0.00338168
-0.00337739
-0.00338738
-0.00341956
-0.00346693
-0.00352239
-0.00358559
-0.00365585
-0.00373104
-0.00380904
-0.00388816
-0.00396637
-0.00404198
-0.00411397
-0.00418148
-0.00424327
-0.00429821
-0.00434536
-0.0043836
-0.0044153
-0.00327497
-0.00326142
-0.00327472
-0.00332503
-0.00339302
-0.00346812
-0.00354879
-0.00363408
-0.00372264
-0.00381294
-0.00390283
-0.0039906
-0.00407494
-0.00415446
-0.00422807
-0.00429529
-0.00435503
-0.00440591
-0.00444733
-0.00448194
-0.00315204
-0.00313347
-0.00315821
-0.0032285
-0.00331848
-0.00341477
-0.00351421
-0.00361577
-0.0037186
-0.00382109
-0.00392165
-0.00401879
-0.00411108
-0.00419747
-0.00427728
-0.00434959
-0.00441357
-0.00446872
-0.00451368
-0.00455153
-0.00300887
-0.00299297
-0.00304093
-0.00313325
-0.00324563
-0.00336345
-0.0034824
-0.00360104
-0.0037184
-0.00383344
-0.0039446
-0.00405047
-0.00415035
-0.00424354
-0.00432915
-0.00440639
-0.00447471
-0.00453328
-0.00458144
-0.00462278
-0.00284123
-0.0028421
-0.00292427
-0.00304262
-0.00317696
-0.00331558
-0.00345398
-0.00358993
-0.00372211
-0.00384936
-0.00397071
-0.00408554
-0.00419308
-0.00429268
-0.00438403
-0.00446635
-0.0045387
-0.00460065
-0.00465125
-0.004695
-0.00264543
-0.0026815
-0.00280959
-0.00295847
-0.0031148
-0.00327294
-0.00343
-0.00358292
-0.00372936
-0.00386841
-0.00399946
-0.00412242
-0.00423729
-0.00434365
-0.00444076
-0.00452786
-0.00460447
-0.00466966
-0.00472264
-0.00476906
-0.00241906
-0.00251582
-0.00269842
-0.00288185
-0.00306071
-0.00323796
-0.0034126
-0.00358109
-0.00374098
-0.00389126
-0.00403146
-0.00416231
-0.00428402
-0.00439631
-0.00449883
-0.00459095
-0.00467156
-0.00473982
-0.00479516
-0.00484413
-0.00215907
-0.00234623
-0.00259006
-0.00280994
-0.00301299
-0.00321033
-0.0034015
-0.00358427
-0.00375647
-0.00391714
-0.00406652
-0.00420509
-0.00433325
-0.00445124
-0.00455878
-0.00465511
-0.00473954
-0.00481094
-0.00486846
-0.00492015
-0.00186564
-0.0021721
-0.00248156
-0.002738
-0.00296893
-0.00318771
-0.00339554
-0.00359149
-0.00377496
-0.00394571
-0.00410401
-0.00425037
-0.00438517
-0.00450863
-0.00462073
-0.00472123
-0.00480916
-0.0048832
-0.00494265
-0.00499685
-0.00154036
-0.00199201
-0.00236725
-0.00266189
-0.00292435
-0.00316656
-0.00339169
-0.00360099
-0.00379547
-0.00397587
-0.004143
-0.00429727
-0.00443889
-0.00456811
-0.004685
-0.00478924
-0.00488039
-0.00495723
-0.0050182
-0.0050746
-0.00118927
-0.00180559
-0.00224069
-0.00257781
-0.00287504
-0.00314314
-0.00338723
-0.00361081
-0.0038168
-0.0040073
-0.00418326
-0.00434532
-0.00449386
-0.00462906
-0.00475079
-0.00485915
-0.00495365
-0.00503287
-0.00509531
-0.00515384
-0.000815847
-0.00160797
-0.00210012
-0.00248214
-0.00281665
-0.00311341
-0.003379
-0.00361897
-0.00383798
-0.00403918
-0.00422444
-0.00439461
-0.0045501
-0.0046912
-0.00481813
-0.00493069
-0.0050285
-0.00511051
-0.00517443
-0.00523488
-0.000414258
-0.00139242
-0.00194131
-0.00237023
-0.00274416
-0.00307279
-0.00336352
-0.00362297
-0.00385715
-0.00407055
-0.00426579
-0.00444431
-0.00460689
-0.00475409
-0.00488613
-0.0050031
-0.00510462
-0.00518944
-0.0052553
-0.00531817
)
;

boundaryField
{
    movingWall
    {
        type            zeroGradient;
    }
    leftSide
    {
        type            zeroGradient;
    }
    rightSide
    {
        type            zeroGradient;
    }
    bottomWall
    {
        type            zeroGradient;
    }
    bottomWall2
    {
        type            zeroGradient;
    }
    frontAndBack
    {
        type            empty;
    }
}


// ************************************************************************* //
