/*--------------------------------*- C++ -*----------------------------------*\
  =========                 |
  \\      /  F ield         | OpenFOAM: The Open Source CFD Toolbox
   \\    /   O peration     | Website:  https://openfoam.org
    \\  /    A nd           | Version:  10
     \\/     M anipulation  |
\*---------------------------------------------------------------------------*/
FoamFile
{
    format      ascii;
    class       surfaceScalarField;
    location    "0.9";
    object      phi;
}
// * * * * * * * * * * * * * * * * * * * * * * * * * * * * * * * * * * * * * //

dimensions      [0 3 -1 0 0 0 0];

internalField   nonuniform List<scalar> 
2320
(
1.71429e-07
3.42363e-05
-3.44077e-05
1.49725e-07
3.57883e-05
-3.57665e-05
1.38708e-07
3.71329e-05
-3.71219e-05
1.30908e-07
3.85291e-05
-3.85213e-05
1.24229e-07
3.99766e-05
-3.99699e-05
1.17855e-07
4.14769e-05
-4.14705e-05
1.11664e-07
4.30315e-05
-4.30253e-05
1.05588e-07
4.46425e-05
-4.46364e-05
9.94526e-08
4.63123e-05
-4.63062e-05
9.30914e-08
4.80431e-05
-4.80367e-05
8.64819e-08
4.98372e-05
-4.98306e-05
7.95793e-08
5.16971e-05
-5.16902e-05
7.23742e-08
5.36253e-05
-5.36181e-05
6.49141e-08
5.56243e-05
-5.56168e-05
5.71898e-08
5.76968e-05
-5.76891e-05
4.90965e-08
5.98457e-05
-5.98376e-05
4.06375e-08
6.20738e-05
-6.20653e-05
3.19312e-08
6.43838e-05
-6.43751e-05
2.27074e-08
6.67791e-05
-6.67699e-05
6.92634e-05
-6.9254e-05
2.27374e-07
3.40089e-05
1.97032e-07
3.58186e-05
1.75552e-07
3.71544e-05
1.61163e-07
3.85434e-05
1.49503e-07
3.99882e-05
1.39228e-07
4.14871e-05
1.29924e-07
4.30408e-05
1.21169e-07
4.46513e-05
1.12741e-07
4.63207e-05
1.04497e-07
4.80513e-05
9.62431e-08
4.98455e-05
8.79108e-08
5.17055e-05
7.9467e-08
5.36337e-05
7.08388e-08
5.56329e-05
6.19802e-08
5.77057e-05
5.2953e-08
5.98547e-05
4.37293e-08
6.2083e-05
3.40587e-08
6.43935e-05
2.41913e-08
6.6789e-05
6.92738e-05
2.6647e-07
3.37425e-05
2.41114e-07
3.58439e-05
2.16289e-07
3.71792e-05
1.94825e-07
3.85649e-05
1.77142e-07
4.00059e-05
1.63164e-07
4.15011e-05
1.51095e-07
4.30529e-05
1.40207e-07
4.46622e-05
1.30037e-07
4.63309e-05
1.20206e-07
4.80612e-05
1.10556e-07
4.98551e-05
1.00958e-07
5.17151e-05
9.12638e-08
5.36434e-05
8.14216e-08
5.56428e-05
7.14325e-08
5.77157e-05
6.11549e-08
5.9865e-05
5.04991e-08
6.20936e-05
3.96736e-08
6.44043e-05
2.85535e-08
6.68001e-05
6.92855e-05
2.87581e-07
3.34549e-05
2.74457e-07
3.58571e-05
2.49651e-07
3.7204e-05
2.26183e-07
3.85884e-05
2.06017e-07
4.00261e-05
1.88085e-07
4.15191e-05
1.72571e-07
4.30684e-05
1.58676e-07
4.46761e-05
1.45807e-07
4.63438e-05
1.33701e-07
4.80733e-05
1.22083e-07
4.98667e-05
1.10708e-07
5.17264e-05
9.94599e-08
5.36547e-05
8.82643e-08
5.5654e-05
7.69472e-08
5.7727e-05
6.54995e-08
5.98765e-05
5.39663e-08
6.21052e-05
4.20767e-08
6.44162e-05
2.98081e-08
6.68123e-05
6.92981e-05
2.96823e-07
3.31581e-05
2.94473e-07
3.58594e-05
2.74384e-07
3.72241e-05
2.52857e-07
3.86099e-05
2.32491e-07
4.00465e-05
2.13844e-07
4.15377e-05
1.96545e-07
4.30857e-05
1.80641e-07
4.4692e-05
1.65978e-07
4.63584e-05
1.52178e-07
4.80871e-05
1.3897e-07
4.988e-05
1.26166e-07
5.17392e-05
1.13554e-07
5.36673e-05
1.00925e-07
5.56666e-05
8.8252e-08
5.77397e-05
7.54311e-08
5.98893e-05
6.22633e-08
6.21183e-05
4.89354e-08
6.44295e-05
3.52991e-08
6.6826e-05
6.93123e-05
3.02166e-07
3.28559e-05
3.06005e-07
3.58556e-05
2.91153e-07
3.7239e-05
2.7325e-07
3.86278e-05
2.54007e-07
4.00657e-05
2.34724e-07
4.1557e-05
2.16238e-07
4.31042e-05
1.98687e-07
4.47095e-05
1.81998e-07
4.63751e-05
1.66121e-07
4.8103e-05
1.50929e-07
4.98951e-05
1.36241e-07
5.17539e-05
1.2192e-07
5.36816e-05
1.079e-07
5.56806e-05
9.39223e-08
5.77536e-05
7.98387e-08
5.99034e-05
6.57442e-08
6.21324e-05
5.12708e-08
6.4444e-05
3.63761e-08
6.68409e-05
6.93275e-05
3.09984e-07
3.25459e-05
3.15514e-07
3.58501e-05
3.03826e-07
3.72507e-05
2.89803e-07
3.86418e-05
2.73107e-07
4.00824e-05
2.55219e-07
4.15749e-05
2.37308e-07
4.31221e-05
2.19755e-07
4.47271e-05
2.02683e-07
4.63922e-05
1.86042e-07
4.81196e-05
1.69768e-07
4.99114e-05
1.53841e-07
5.17698e-05
1.38186e-07
5.36973e-05
1.22573e-07
5.56962e-05
1.06991e-07
5.77692e-05
9.14289e-08
5.99189e-05
7.55586e-08
6.21483e-05
5.94297e-08
6.44601e-05
4.30182e-08
6.68573e-05
6.93445e-05
3.19796e-07
3.22261e-05
3.25278e-07
3.58446e-05
3.13052e-07
3.72629e-05
2.99156e-07
3.86557e-05
2.84371e-07
4.00972e-05
2.68464e-07
4.15908e-05
2.51097e-07
4.31394e-05
2.33188e-07
4.4745e-05
2.15218e-07
4.64102e-05
1.97476e-07
4.81373e-05
1.80069e-07
4.99288e-05
1.62903e-07
5.1787e-05
1.45879e-07
5.37143e-05
1.29103e-07
5.5713e-05
1.12447e-07
5.77859e-05
9.56404e-08
5.99357e-05
7.87467e-08
6.21652e-05
6.15583e-08
6.44773e-05
4.39303e-08
6.68749e-05
6.93625e-05
3.3275e-07
3.18934e-05
3.40473e-07
3.58368e-05
3.26845e-07
3.72765e-05
3.13108e-07
3.86695e-05
2.99274e-07
4.0111e-05
2.84668e-07
4.16054e-05
2.69142e-07
4.3155e-05
2.52476e-07
4.47616e-05
2.35145e-07
4.64275e-05
2.17457e-07
4.8155e-05
1.99547e-07
4.99467e-05
1.81542e-07
5.1805e-05
1.63572e-07
5.37323e-05
1.45426e-07
5.57311e-05
1.27044e-07
5.78043e-05
1.08608e-07
5.99542e-05
8.98902e-08
6.21839e-05
7.08133e-08
6.44964e-05
5.14156e-08
6.68943e-05
6.93825e-05
3.45941e-07
3.15474e-05
3.56499e-07
3.58263e-05
3.40423e-07
3.72926e-05
3.24831e-07
3.86851e-05
3.09749e-07
4.01261e-05
2.94235e-07
4.16209e-05
2.78199e-07
4.3171e-05
2.61399e-07
4.47784e-05
2.43759e-07
4.64451e-05
2.25558e-07
4.81732e-05
2.07044e-07
4.99653e-05
1.8838e-07
5.18237e-05
1.69486e-07
5.37511e-05
1.50522e-07
5.57501e-05
1.3155e-07
5.78232e-05
1.12235e-07
5.99735e-05
9.2604e-08
6.22035e-05
7.2693e-08
6.45163e-05
5.23388e-08
6.69147e-05
6.94034e-05
3.60997e-07
3.11864e-05
3.77492e-07
3.58098e-05
3.61317e-07
3.73088e-05
3.44595e-07
3.87018e-05
3.28543e-07
4.01421e-05
3.1288e-07
4.16366e-05
2.97042e-07
4.31868e-05
2.80853e-07
4.47946e-05
2.63943e-07
4.6462e-05
2.46131e-07
4.8191e-05
2.27533e-07
4.99839e-05
2.08208e-07
5.1843e-05
1.88437e-07
5.37709e-05
1.68217e-07
5.57703e-05
1.47437e-07
5.7844e-05
1.26357e-07
5.99946e-05
1.0494e-07
6.2225e-05
8.29405e-08
6.45383e-05
6.03942e-08
6.69372e-05
6.94265e-05
3.74666e-07
3.08118e-05
3.9611e-07
3.57884e-05
3.79174e-07
3.73257e-05
3.60423e-07
3.87205e-05
3.42016e-07
4.01606e-05
3.23893e-07
4.16547e-05
3.05981e-07
4.32047e-05
2.88011e-07
4.48126e-05
2.6985e-07
4.64802e-05
2.51297e-07
4.82096e-05
2.32124e-07
5.0003e-05
2.12498e-07
5.18626e-05
1.9233e-07
5.37911e-05
1.71644e-07
5.5791e-05
1.50658e-07
5.7865e-05
1.29173e-07
6.00161e-05
1.07078e-07
6.22471e-05
8.45507e-08
6.45608e-05
6.15291e-08
6.69602e-05
6.94503e-05
3.8938e-07
3.04224e-05
4.17945e-07
3.57598e-05
4.02918e-07
3.73407e-05
3.84754e-07
3.87387e-05
3.66305e-07
4.0179e-05
3.48158e-07
4.16728e-05
3.30137e-07
4.32228e-05
3.11999e-07
4.48307e-05
2.9351e-07
4.64987e-05
2.74484e-07
4.82286e-05
2.54898e-07
5.00226e-05
2.34396e-07
5.18831e-05
2.13032e-07
5.38125e-05
1.90984e-07
5.58131e-05
1.68123e-07
5.78879e-05
1.4456e-07
6.00396e-05
1.20453e-07
6.22712e-05
9.56101e-08
6.45856e-05
6.9927e-08
6.69859e-05
6.94766e-05
4.02909e-07
3.00195e-05
4.36899e-07
3.57258e-05
4.21642e-07
3.7356e-05
4.02253e-07
3.87581e-05
3.82149e-07
4.01991e-05
3.61628e-07
4.16934e-05
3.40901e-07
4.32435e-05
3.20111e-07
4.48515e-05
2.99379e-07
4.65194e-05
2.78682e-07
4.82493e-05
2.57696e-07
5.00436e-05
2.36518e-07
5.19043e-05
2.14967e-07
5.3834e-05
1.92697e-07
5.58353e-05
1.69767e-07
5.79108e-05
1.46226e-07
6.00632e-05
1.21905e-07
6.22955e-05
9.68105e-08
6.46107e-05
7.10883e-08
6.70116e-05
6.95032e-05
4.17485e-07
2.9602e-05
4.58401e-07
3.56849e-05
4.45412e-07
3.7369e-05
4.27905e-07
3.87756e-05
4.0938e-07
4.02176e-05
3.90084e-07
4.17127e-05
3.70186e-07
4.32634e-05
3.49805e-07
4.48719e-05
3.28882e-07
4.65403e-05
3.07321e-07
4.82709e-05
2.85327e-07
5.00656e-05
2.62585e-07
5.19271e-05
2.38975e-07
5.38576e-05
2.14689e-07
5.58596e-05
1.89674e-07
5.79358e-05
1.63696e-07
6.00891e-05
1.36809e-07
6.23224e-05
1.09149e-07
6.46384e-05
8.04397e-08
6.70404e-05
6.95328e-05
4.31631e-07
2.91704e-05
4.78591e-07
3.56379e-05
4.64627e-07
3.73829e-05
4.45016e-07
3.87952e-05
4.2418e-07
4.02385e-05
4.02303e-07
4.17345e-05
3.79797e-07
4.32859e-05
3.56873e-07
4.48948e-05
3.33691e-07
4.65635e-05
3.10456e-07
4.82941e-05
2.86919e-07
5.00891e-05
2.63176e-07
5.19508e-05
2.39239e-07
5.38815e-05
2.14782e-07
5.58841e-05
1.89529e-07
5.79611e-05
1.63613e-07
6.01151e-05
1.37024e-07
6.2349e-05
1.09311e-07
6.46661e-05
8.07019e-08
6.7069e-05
6.95624e-05
4.47052e-07
2.87233e-05
5.01172e-07
3.55838e-05
4.89363e-07
3.73948e-05
4.71887e-07
3.88127e-05
4.53325e-07
4.0257e-05
4.33928e-07
4.17539e-05
4.13377e-07
4.33064e-05
3.9173e-07
4.49165e-05
3.69108e-07
4.65861e-05
3.45326e-07
4.83179e-05
3.2068e-07
5.01138e-05
2.95217e-07
5.19763e-05
2.68809e-07
5.3908e-05
2.41513e-07
5.59114e-05
2.13601e-07
5.7989e-05
1.8484e-07
6.01438e-05
1.54861e-07
6.23789e-05
1.24109e-07
6.46969e-05
9.2345e-08
6.71007e-05
6.95953e-05
4.61791e-07
2.82615e-05
5.23153e-07
3.55224e-05
5.09797e-07
3.74081e-05
4.88694e-07
3.88338e-05
4.66425e-07
4.02793e-05
4.43229e-07
4.17771e-05
4.19407e-07
4.33303e-05
3.94983e-07
4.49409e-05
3.6989e-07
4.66112e-05
3.44546e-07
4.83432e-05
3.18817e-07
5.01395e-05
2.92558e-07
5.20025e-05
2.65872e-07
5.39346e-05
2.38797e-07
5.59384e-05
2.10881e-07
5.80169e-05
1.82069e-07
6.01726e-05
1.52752e-07
6.24083e-05
1.2226e-07
6.47274e-05
9.05551e-08
6.71324e-05
6.9628e-05
4.79014e-07
2.77825e-05
5.48723e-07
3.54527e-05
5.38008e-07
3.74188e-05
5.19641e-07
3.88521e-05
5.00268e-07
4.02987e-05
4.80241e-07
4.17971e-05
4.59033e-07
4.33515e-05
4.36407e-07
4.49635e-05
4.12526e-07
4.66351e-05
3.87042e-07
4.83687e-05
3.60109e-07
5.01664e-05
3.32048e-07
5.20306e-05
3.02898e-07
5.39638e-05
2.72461e-07
5.59689e-05
2.4108e-07
5.80483e-05
2.08931e-07
6.02048e-05
1.75439e-07
6.24417e-05
1.41015e-07
6.47618e-05
1.05719e-07
6.71677e-05
6.96645e-05
4.93348e-07
2.72892e-05
5.7127e-07
3.53748e-05
5.5881e-07
3.74313e-05
5.35332e-07
3.88756e-05
5.10461e-07
4.03235e-05
4.84777e-07
4.18228e-05
4.58706e-07
4.33775e-05
4.32442e-07
4.49898e-05
4.05602e-07
4.6662e-05
3.78435e-07
4.83959e-05
3.50873e-07
5.0194e-05
3.22638e-07
5.20588e-05
2.93588e-07
5.39928e-05
2.6397e-07
5.59985e-05
2.33599e-07
5.80786e-05
2.02054e-07
6.02363e-05
1.69731e-07
6.24741e-05
1.36326e-07
6.47952e-05
1.01551e-07
6.72025e-05
6.97005e-05
5.13348e-07
2.67758e-05
6.01792e-07
3.52864e-05
5.9322e-07
3.74399e-05
5.74106e-07
3.88947e-05
5.5361e-07
4.0344e-05
5.32302e-07
4.18441e-05
5.09718e-07
4.34001e-05
4.85434e-07
4.50141e-05
4.59753e-07
4.66876e-05
4.32383e-07
4.84233e-05
4.03243e-07
5.02231e-05
3.72501e-07
5.20896e-05
3.40433e-07
5.40249e-05
3.06925e-07
5.6032e-05
2.71908e-07
5.81137e-05
2.35821e-07
6.02724e-05
1.98492e-07
6.25114e-05
1.5993e-07
6.48337e-05
1.20263e-07
6.72422e-05
6.97413e-05
5.26309e-07
2.62495e-05
6.23263e-07
3.51894e-05
6.12254e-07
3.74509e-05
5.85922e-07
3.89211e-05
5.57746e-07
4.03722e-05
5.28835e-07
4.18731e-05
4.99665e-07
4.34293e-05
4.70708e-07
4.5043e-05
4.41541e-07
4.67168e-05
4.12194e-07
4.84526e-05
3.82586e-07
5.02527e-05
3.52536e-07
5.21196e-05
3.21656e-07
5.40558e-05
2.89776e-07
5.60639e-05
2.57117e-07
5.81463e-05
2.23365e-07
6.03062e-05
1.88319e-07
6.25464e-05
1.51966e-07
6.48701e-05
1.14333e-07
6.72798e-05
6.97806e-05
5.49715e-07
2.56998e-05
6.60278e-07
3.50788e-05
6.55567e-07
3.74556e-05
6.36557e-07
3.89401e-05
6.15308e-07
4.03935e-05
5.92714e-07
4.18956e-05
5.68477e-07
4.34535e-05
5.41998e-07
4.50695e-05
5.13589e-07
4.67452e-05
4.83229e-07
4.8483e-05
4.50992e-07
5.0285e-05
4.16898e-07
5.21537e-05
3.81116e-07
5.40916e-05
3.44018e-07
5.6101e-05
3.05315e-07
5.8185e-05
2.64959e-07
6.03465e-05
2.2329e-07
6.25881e-05
1.8042e-07
6.4913e-05
1.35911e-07
6.73243e-05
6.98262e-05
5.60994e-07
2.51388e-05
6.79863e-07
3.496e-05
6.70503e-07
3.74649e-05
6.40508e-07
3.89701e-05
6.0833e-07
4.04256e-05
5.75774e-07
4.19282e-05
5.43172e-07
4.34861e-05
5.11144e-07
4.51015e-05
4.79417e-07
4.67769e-05
4.47846e-07
4.85145e-05
4.16098e-07
5.03167e-05
3.83896e-07
5.21859e-05
3.51177e-07
5.41243e-05
3.17302e-07
5.61349e-05
2.82196e-07
5.82201e-05
2.46113e-07
6.03826e-05
2.08648e-07
6.26256e-05
1.69206e-07
6.49524e-05
1.2841e-07
6.73651e-05
6.98688e-05
5.8756e-07
2.45512e-05
7.24072e-07
3.48235e-05
7.25579e-07
3.74634e-05
7.0765e-07
3.8988e-05
6.86134e-07
4.04472e-05
6.62315e-07
4.1952e-05
6.36141e-07
4.35123e-05
6.06999e-07
4.51307e-05
5.75107e-07
4.68088e-05
5.40665e-07
4.8549e-05
5.04058e-07
5.03533e-05
4.65735e-07
5.22242e-05
4.25444e-07
5.41646e-05
3.83584e-07
5.61767e-05
3.40553e-07
5.82632e-05
2.95867e-07
6.04273e-05
2.49503e-07
6.26719e-05
2.02256e-07
6.49997e-05
1.53285e-07
6.74141e-05
6.99193e-05
5.97026e-07
2.39542e-05
7.40313e-07
3.46802e-05
7.32308e-07
3.74714e-05
6.97659e-07
3.90227e-05
6.60776e-07
4.0484e-05
6.24349e-07
4.19884e-05
5.8857e-07
4.35481e-05
5.53956e-07
4.51653e-05
5.20144e-07
4.68426e-05
4.86761e-07
4.85824e-05
4.53378e-07
5.03867e-05
4.19157e-07
5.22584e-05
3.84227e-07
5.41995e-05
3.48404e-07
5.62125e-05
3.10781e-07
5.83008e-05
2.7151e-07
6.04666e-05
2.30899e-07
6.27126e-05
1.87907e-07
6.50427e-05
1.43113e-07
6.74589e-05
6.9966e-05
6.27004e-07
2.33272e-05
7.95012e-07
3.45122e-05
8.06061e-07
3.74604e-05
7.90107e-07
3.90386e-05
7.68317e-07
4.05058e-05
7.42712e-07
4.20141e-05
7.13582e-07
4.35772e-05
6.80542e-07
4.51983e-05
6.4407e-07
4.68791e-05
6.0467e-07
4.86218e-05
5.6259e-07
5.04288e-05
5.1879e-07
5.23022e-05
4.73397e-07
5.42449e-05
4.26133e-07
5.62598e-05
3.77849e-07
5.83491e-05
3.28656e-07
6.05157e-05
2.77835e-07
6.27634e-05
2.26002e-07
6.50945e-05
1.72566e-07
6.75123e-05
7.0021e-05
6.32962e-07
2.26942e-05
8.01162e-07
3.4344e-05
7.93858e-07
3.74677e-05
7.54045e-07
3.90784e-05
7.12404e-07
4.05475e-05
6.72701e-07
4.20538e-05
6.34776e-07
4.36151e-05
5.98734e-07
4.52344e-05
5.6381e-07
4.6914e-05
5.29146e-07
4.86564e-05
4.94557e-07
5.04634e-05
4.59082e-07
5.23377e-05
4.21971e-07
5.4282e-05
3.83517e-07
5.62983e-05
3.43116e-07
5.83895e-05
3.00274e-07
6.05586e-05
2.55568e-07
6.28081e-05
2.08625e-07
6.51414e-05
1.59824e-07
6.75611e-05
7.00721e-05
6.69067e-07
2.20252e-05
8.77718e-07
3.41353e-05
9.02658e-07
3.74428e-05
8.88787e-07
3.90923e-05
8.65439e-07
4.05708e-05
8.36192e-07
4.2083e-05
8.02109e-07
4.36492e-05
7.63183e-07
4.52733e-05
7.20216e-07
4.6957e-05
6.74436e-07
4.87022e-05
6.26064e-07
5.05118e-05
5.75672e-07
5.23881e-05
5.24357e-07
5.43333e-05
4.71991e-07
5.63506e-05
4.18497e-07
5.8443e-05
3.64117e-07
6.0613e-05
3.08403e-07
6.28638e-05
2.51387e-07
6.51984e-05
1.92334e-07
6.76202e-05
7.01326e-05
6.67113e-07
2.13581e-05
8.58807e-07
3.39436e-05
8.52244e-07
3.74493e-05
8.08101e-07
3.91364e-05
7.62998e-07
4.06159e-05
7.2166e-07
4.21243e-05
6.83147e-07
4.36877e-05
6.46973e-07
4.53095e-05
6.1233e-07
4.69917e-05
5.77464e-07
4.87371e-05
5.41569e-07
5.05477e-05
5.04399e-07
5.24253e-05
4.64905e-07
5.43728e-05
4.22757e-07
5.63928e-05
3.7837e-07
5.84873e-05
3.31894e-07
6.06594e-05
2.83389e-07
6.29123e-05
2.32456e-07
6.52494e-05
1.79912e-07
6.76727e-05
7.01877e-05
7.1228e-07
2.06458e-05
9.7118e-07
3.36847e-05
1.01347e-06
3.7407e-05
1.00044e-06
3.91495e-05
9.72759e-07
4.06436e-05
9.36746e-07
4.21604e-05
8.94682e-07
4.37298e-05
8.47826e-07
4.53563e-05
7.96911e-07
4.70426e-05
7.43609e-07
4.87904e-05
6.89185e-07
5.06021e-05
6.33521e-07
5.24809e-05
5.76904e-07
5.44294e-05
5.19785e-07
5.64499e-05
4.61667e-07
5.85455e-05
4.01841e-07
6.07193e-05
3.40264e-07
6.29739e-05
2.77661e-07
6.5312e-05
2.12875e-07
6.77375e-05
7.0254e-05
6.9902e-07
1.99468e-05
9.15496e-07
3.34682e-05
9.12535e-07
3.741e-05
8.66702e-07
3.91953e-05
8.20723e-07
4.06896e-05
7.80025e-07
4.22011e-05
7.43064e-07
4.37668e-05
7.0779e-07
4.53916e-05
6.73145e-07
4.70772e-05
6.37569e-07
4.88259e-05
5.99399e-07
5.06403e-05
5.5853e-07
5.25218e-05
5.15269e-07
5.44727e-05
4.69202e-07
5.6496e-05
4.2039e-07
5.85943e-05
3.6955e-07
6.07701e-05
3.16693e-07
6.30267e-05
2.60721e-07
6.5368e-05
2.02749e-07
6.77955e-05
7.03146e-05
7.52569e-07
1.91942e-05
1.06444e-06
3.31564e-05
1.12352e-06
3.73509e-05
1.10795e-06
3.92109e-05
1.07188e-06
4.07257e-05
1.02568e-06
4.22472e-05
9.72901e-07
4.38195e-05
9.16613e-07
4.54479e-05
8.58207e-07
4.71356e-05
7.98649e-07
4.88855e-05
7.39248e-07
5.06997e-05
6.80204e-07
5.25809e-05
6.20612e-07
5.45323e-05
5.60159e-07
5.65564e-05
4.98794e-07
5.86556e-05
4.35756e-07
6.08331e-05
3.70693e-07
6.30918e-05
3.04306e-07
6.54343e-05
2.35159e-07
6.78646e-05
7.03858e-05
7.25575e-07
1.84686e-05
9.74492e-07
3.29075e-05
9.83529e-07
3.73419e-05
9.41993e-07
3.92524e-05
8.99573e-07
4.07681e-05
8.62186e-07
4.22846e-05
8.27911e-07
4.38538e-05
7.93198e-07
4.54826e-05
7.55968e-07
4.71728e-05
7.15896e-07
4.89256e-05
6.72457e-07
5.07431e-05
6.25303e-07
5.2628e-05
5.75165e-07
5.45824e-05
5.22704e-07
5.66089e-05
4.67872e-07
5.87105e-05
4.1097e-07
6.089e-05
3.52092e-07
6.31507e-05
2.90495e-07
6.54959e-05
2.27436e-07
6.79277e-05
7.04515e-05
7.92817e-07
1.76758e-05
1.15583e-06
3.25444e-05
1.22566e-06
3.7272e-05
1.20007e-06
3.9278e-05
1.14944e-06
4.08187e-05
1.09025e-06
4.23438e-05
1.02681e-06
4.39173e-05
9.62335e-07
4.55471e-05
8.99075e-07
4.72361e-05
8.36884e-07
4.89878e-05
7.75113e-07
5.08049e-05
7.13663e-07
5.26895e-05
6.5211e-07
5.4644e-05
5.89602e-07
5.66714e-05
5.25779e-07
5.87743e-05
4.60257e-07
6.09556e-05
3.92823e-07
6.32181e-05
3.23913e-07
6.55648e-05
2.51845e-07
6.79997e-05
7.05257e-05
7.23836e-07
1.6952e-05
1.01101e-06
3.22573e-05
1.04732e-06
3.72357e-05
1.02147e-06
3.93038e-05
9.89013e-07
4.08512e-05
9.56277e-07
4.23766e-05
9.22285e-07
4.39513e-05
8.85151e-07
4.55842e-05
8.43091e-07
4.72782e-05
7.96155e-07
4.90347e-05
7.45517e-07
5.08555e-05
6.91865e-07
5.27431e-05
6.35344e-07
5.47005e-05
5.7644e-07
5.67303e-05
5.15548e-07
5.88352e-05
4.52943e-07
6.10182e-05
3.88657e-07
6.32824e-05
3.21969e-07
6.56315e-05
2.54188e-07
6.80675e-05
7.05964e-05
8.34316e-07
1.61176e-05
1.23684e-06
3.18548e-05
1.30419e-06
3.71684e-05
1.26107e-06
3.9347e-05
1.19434e-06
4.09179e-05
1.12556e-06
4.24453e-05
1.05829e-06
4.40185e-05
9.93044e-07
4.56495e-05
9.30129e-07
4.73411e-05
8.69217e-07
4.90956e-05
8.08911e-07
5.09158e-05
7.47838e-07
5.28042e-05
6.85502e-07
5.47628e-05
6.21625e-07
5.67942e-05
5.55845e-07
5.8901e-05
4.87806e-07
6.10862e-05
4.17376e-07
6.33528e-05
3.45541e-07
6.57034e-05
2.70832e-07
6.81422e-05
7.06731e-05
6.803e-07
1.54373e-05
1.01886e-06
3.15162e-05
1.09884e-06
3.70884e-05
1.09405e-06
3.93517e-05
1.06784e-06
4.09441e-05
1.03338e-06
4.24798e-05
9.91895e-07
4.406e-05
9.45166e-07
4.56962e-05
8.94217e-07
4.7392e-05
8.3983e-07
4.915e-05
7.82874e-07
5.09728e-05
7.24529e-07
5.28625e-05
6.65167e-07
5.48222e-05
6.0452e-07
5.68548e-05
5.42433e-07
5.89631e-05
4.791e-07
6.11495e-05
4.13492e-07
6.34184e-05
3.45031e-07
6.57718e-05
2.74674e-07
6.82126e-05
7.07465e-05
8.16287e-07
1.46211e-05
1.21723e-06
3.11152e-05
1.28482e-06
3.70208e-05
1.24314e-06
3.93934e-05
1.18275e-06
4.10045e-05
1.1221e-06
4.25405e-05
1.06426e-06
4.41178e-05
1.00776e-06
4.57527e-05
9.51222e-07
4.74486e-05
8.93626e-07
4.92076e-05
8.34657e-07
5.10317e-05
7.73804e-07
5.29234e-05
7.10758e-07
5.48853e-05
6.456e-07
5.692e-05
5.78395e-07
5.90303e-05
5.08802e-07
6.12191e-05
4.37913e-07
6.34893e-05
3.64385e-07
6.58454e-05
2.88594e-07
6.82884e-05
7.08241e-05
6.54103e-07
1.04183e-06
1.13967e-06
1.12749e-06
1.08763e-06
1.04126e-06
9.91969e-07
9.40526e-07
8.87521e-07
8.33346e-07
7.77947e-07
7.21174e-07
6.63112e-07
6.03813e-07
5.43083e-07
4.80797e-07
4.16744e-07
3.51319e-07
2.8388e-07
1.61818e-09
3.45862e-05
1.20298e-09
3.58705e-05
-1.47884e-10
3.72041e-05
-6.73952e-10
3.85856e-05
-8.10192e-10
4.00188e-05
-7.08573e-10
4.15055e-05
-4.79062e-10
4.30475e-05
-1.58375e-10
4.46468e-05
1.88189e-10
4.63057e-05
5.34798e-10
4.80262e-05
8.65823e-10
4.98106e-05
1.13867e-09
5.16614e-05
1.35979e-09
5.3581e-05
1.52984e-09
5.55718e-05
1.60523e-09
5.76367e-05
1.57804e-09
5.97783e-05
1.48324e-09
6.19994e-05
1.33827e-09
6.43031e-05
1.07734e-09
6.66924e-05
6.91705e-05
-9.26768e-09
3.45881e-05
-4.43085e-09
3.58656e-05
4.91914e-10
3.71992e-05
1.79792e-09
3.85843e-05
2.16274e-09
4.00185e-05
2.52329e-09
4.15051e-05
3.10148e-09
4.30469e-05
3.64332e-09
4.46463e-05
4.1573e-09
4.63052e-05
4.54272e-09
4.80258e-05
4.7811e-09
4.98104e-05
4.86379e-09
5.16613e-05
4.78249e-09
5.3581e-05
4.50142e-09
5.55721e-05
4.0886e-09
5.76371e-05
3.56978e-09
5.97788e-05
2.93407e-09
6.20001e-05
2.17801e-09
6.43038e-05
1.25437e-09
6.66933e-05
6.91714e-05
-2.75598e-10
3.45885e-05
-9.47021e-10
3.58663e-05
-1.28984e-09
3.71996e-05
-4.93296e-10
3.85835e-05
2.16285e-10
4.00178e-05
1.15832e-09
4.15042e-05
2.24844e-09
4.30458e-05
3.48937e-09
4.46451e-05
4.6601e-09
4.6304e-05
5.71934e-09
4.80247e-05
6.58141e-09
4.98095e-05
7.19794e-09
5.16607e-05
7.52258e-09
5.35807e-05
7.57605e-09
5.55721e-05
7.31479e-09
5.76374e-05
6.72439e-09
5.97794e-05
5.84819e-09
6.20009e-05
4.78935e-09
6.43049e-05
3.38947e-09
6.66947e-05
6.9173e-05
-6.4842e-09
3.45883e-05
-4.47113e-09
3.58643e-05
-9.03934e-10
3.7196e-05
1.23337e-09
3.85813e-05
3.01726e-09
4.0016e-05
4.54173e-09
4.15027e-05
6.05114e-09
4.30443e-05
7.38479e-09
4.46437e-05
8.56337e-09
4.63028e-05
9.49963e-09
4.80238e-05
1.01096e-08
4.98089e-05
1.03664e-08
5.16605e-05
1.03099e-08
5.35808e-05
9.89344e-09
5.55725e-05
9.14973e-09
5.76381e-05
8.15013e-09
5.97804e-05
6.87735e-09
6.20022e-05
5.21956e-09
6.43065e-05
3.39125e-09
6.66965e-05
6.91749e-05
1.84195e-09
3.45877e-05
7.7222e-11
3.5866e-05
-1.70007e-09
3.71978e-05
-2.35658e-10
3.85799e-05
2.11876e-09
4.00136e-05
4.45211e-09
4.15003e-05
6.55128e-09
4.30422e-05
8.56289e-09
4.46417e-05
1.02927e-08
4.63011e-05
1.16836e-08
4.80224e-05
1.26864e-08
4.98079e-05
1.33179e-08
5.16598e-05
1.34677e-08
5.35806e-05
1.31465e-08
5.55728e-05
1.23963e-08
5.76389e-05
1.11979e-08
5.97816e-05
9.57668e-09
6.20038e-05
7.60952e-09
6.43085e-05
5.43369e-09
6.66987e-05
6.91773e-05
-3.88073e-09
3.45873e-05
-2.6721e-09
3.58648e-05
-5.10194e-10
3.71956e-05
2.04045e-09
3.85773e-05
5.23334e-09
4.00104e-05
8.26358e-09
4.14973e-05
1.07814e-08
4.30397e-05
1.27934e-08
4.46397e-05
1.43684e-08
4.62995e-05
1.55181e-08
4.80213e-05
1.61939e-08
4.98072e-05
1.63225e-08
5.16597e-05
1.59825e-08
5.3581e-05
1.52338e-08
5.55735e-05
1.40438e-08
5.76401e-05
1.24255e-08
5.97832e-05
1.04051e-08
6.20059e-05
7.95543e-09
6.4311e-05
5.26907e-09
6.67014e-05
6.918e-05
3.18772e-09
3.45865e-05
1.76059e-09
3.58663e-05
3.73295e-10
3.7197e-05
2.6442e-09
3.85751e-05
6.08918e-09
4.0007e-05
9.72591e-09
4.14937e-05
1.2786e-08
4.30366e-05
1.5287e-08
4.46372e-05
1.72327e-08
4.62976e-05
1.86211e-08
4.80199e-05
1.94394e-08
4.98064e-05
1.975e-08
5.16594e-05
1.94785e-08
5.35812e-05
1.85992e-08
5.55744e-05
1.7213e-08
5.76414e-05
1.53824e-08
5.97851e-05
1.30777e-08
6.20082e-05
1.03964e-08
6.43136e-05
7.41164e-09
6.67044e-05
6.91833e-05
-3.32871e-09
3.45868e-05
-8.4255e-10
3.58638e-05
2.88376e-09
3.71933e-05
6.55188e-09
3.85714e-05
1.058e-08
4.00029e-05
1.43657e-08
4.14899e-05
1.75899e-08
4.30334e-05
1.99763e-08
4.46348e-05
2.16349e-08
4.62959e-05
2.25872e-08
4.80189e-05
2.29234e-08
4.98061e-05
2.26265e-08
5.16597e-05
2.17803e-08
5.35821e-05
2.04979e-08
5.55757e-05
1.87335e-08
5.76432e-05
1.64329e-08
5.97874e-05
1.37153e-08
6.20109e-05
1.06379e-08
6.43167e-05
7.25056e-09
6.67078e-05
6.91869e-05
2.22051e-09
3.45866e-05
3.29616e-09
3.58627e-05
5.59894e-09
3.7191e-05
9.39592e-09
3.85676e-05
1.35243e-08
3.99988e-05
1.74336e-08
4.1486e-05
2.08362e-08
4.303e-05
2.34982e-08
4.46322e-05
2.53505e-08
4.62941e-05
2.64244e-08
4.80179e-05
2.67538e-08
4.98058e-05
2.64174e-08
5.166e-05
2.54613e-08
5.3583e-05
2.38832e-08
5.55773e-05
2.17669e-08
5.76453e-05
1.92332e-08
5.97899e-05
1.62553e-08
6.20139e-05
1.28465e-08
6.43201e-05
9.11193e-09
6.67115e-05
6.91909e-05
-3.74765e-09
3.4587e-05
1.83824e-09
3.58571e-05
9.61324e-09
3.71832e-05
1.51839e-08
3.8562e-05
1.96229e-08
3.99944e-05
2.32245e-08
4.14824e-05
2.62123e-08
4.3027e-05
2.8477e-08
4.46299e-05
2.98749e-08
4.62927e-05
3.03577e-08
4.80174e-05
3.00936e-08
4.9806e-05
2.9165e-08
5.1661e-05
2.76399e-08
5.35846e-05
2.56348e-08
5.55793e-05
2.31676e-08
5.76478e-05
2.02003e-08
5.97929e-05
1.68182e-08
6.20172e-05
1.31624e-08
6.43238e-05
9.10433e-09
6.67155e-05
6.91952e-05
1.52114e-09
3.45861e-05
7.31784e-09
3.58513e-05
1.37049e-08
3.71768e-05
1.97403e-08
3.8556e-05
2.41692e-08
3.999e-05
2.76364e-08
4.14789e-05
3.04732e-08
4.30242e-05
3.26406e-08
4.46277e-05
3.39467e-08
4.62914e-05
3.44098e-08
4.80169e-05
3.40376e-08
4.98064e-05
3.28942e-08
5.16621e-05
3.11284e-08
5.35863e-05
2.87971e-08
5.55816e-05
2.59646e-08
5.76506e-05
2.27754e-08
5.97961e-05
1.92212e-08
6.20208e-05
1.51991e-08
6.43278e-05
1.07654e-08
6.672e-05
6.92e-05
-2.68533e-09
3.45848e-05
8.12651e-09
3.58405e-05
1.93921e-08
3.71655e-05
2.67105e-08
3.85487e-05
3.1253e-08
3.99854e-05
3.42719e-08
4.14759e-05
3.64594e-08
4.3022e-05
3.7815e-08
4.46264e-05
3.83396e-08
4.62908e-05
3.79926e-08
4.80173e-05
3.68232e-08
4.98076e-05
3.51235e-08
5.16638e-05
3.29437e-08
5.35885e-05
3.02953e-08
5.55843e-05
2.72044e-08
5.76537e-05
2.36441e-08
5.97996e-05
1.9723e-08
6.20247e-05
1.55324e-08
6.4332e-05
1.08875e-08
6.67246e-05
6.9205e-05
3.63171e-09
3.45815e-05
1.5859e-08
3.58283e-05
2.50522e-08
3.71563e-05
3.20128e-08
3.85417e-05
3.64513e-08
3.9981e-05
3.94496e-08
4.14729e-05
4.14069e-08
4.302e-05
4.23698e-08
4.46254e-05
4.24355e-08
4.62908e-05
4.17812e-08
4.80179e-05
4.05604e-08
4.98088e-05
3.87091e-08
5.16657e-05
3.62838e-08
5.35909e-05
3.33426e-08
5.55872e-05
2.98911e-08
5.76572e-05
2.60454e-08
5.98035e-05
2.18699e-08
6.20289e-05
1.72781e-08
6.43366e-05
1.22589e-08
6.67296e-05
6.92104e-05
4.37632e-09
3.45751e-05
2.0462e-08
3.58122e-05
3.24613e-08
3.71443e-05
3.84432e-08
3.85357e-05
4.30549e-08
3.99764e-05
4.62234e-08
4.14697e-05
4.7427e-08
4.30188e-05
4.7461e-08
4.46254e-05
4.65636e-08
4.62917e-05
4.51049e-08
4.80194e-05
4.32246e-08
4.98107e-05
4.08729e-08
5.1668e-05
3.80211e-08
5.35938e-05
3.46731e-08
5.55906e-05
3.09312e-08
5.76609e-05
2.67818e-08
5.98076e-05
2.22661e-08
6.20334e-05
1.75527e-08
6.43413e-05
1.24084e-08
6.67348e-05
6.9216e-05
1.60062e-08
3.45635e-05
3.12537e-08
3.57969e-05
3.8488e-08
3.71371e-05
4.41341e-08
3.85301e-05
4.85153e-08
3.9972e-05
5.11472e-08
4.14671e-05
5.21258e-08
4.30179e-05
5.16291e-08
4.46259e-05
5.05436e-08
4.62928e-05
4.89617e-08
4.8021e-05
4.68629e-08
4.98128e-05
4.42e-08
5.16707e-05
4.10347e-08
5.3597e-05
3.74393e-08
5.55942e-05
3.34001e-08
5.7665e-05
2.89616e-08
5.9812e-05
2.41671e-08
6.20382e-05
1.90598e-08
6.43464e-05
1.35893e-08
6.67403e-05
6.92219e-05
2.2592e-08
3.45469e-05
3.96403e-08
3.57799e-05
4.69189e-08
3.71298e-05
5.21888e-08
3.85248e-05
5.55632e-08
3.99686e-05
5.69523e-08
4.14657e-05
5.69795e-08
4.30178e-05
5.60389e-08
4.46268e-05
5.42989e-08
4.62945e-05
5.19737e-08
4.80233e-05
4.91567e-08
4.98156e-05
4.59876e-08
5.16738e-05
4.24324e-08
5.36005e-05
3.84497e-08
5.55981e-05
3.41291e-08
5.76693e-05
2.94823e-08
5.98167e-05
2.44525e-08
6.20432e-05
1.92203e-08
6.43516e-05
1.36884e-08
6.67458e-05
6.92279e-05
4.00471e-08
3.4523e-05
5.12181e-08
3.57687e-05
5.53378e-08
3.71257e-05
5.91381e-08
3.8521e-05
6.12107e-08
3.99665e-05
6.18169e-08
4.14651e-05
6.13468e-08
4.30183e-05
6.00912e-08
4.46281e-05
5.80991e-08
4.62965e-05
5.55281e-08
4.80258e-05
5.24894e-08
4.98186e-05
4.89947e-08
5.16773e-05
4.51072e-08
5.36044e-05
4.08947e-08
5.56023e-05
3.63318e-08
5.76738e-05
3.14068e-08
5.98216e-05
2.61243e-08
6.20485e-05
2.05275e-08
6.43572e-05
1.47365e-08
6.67516e-05
6.92343e-05
5.32976e-08
3.44922e-05
6.01753e-08
3.57618e-05
6.54657e-08
3.71204e-05
6.76701e-08
3.85188e-05
6.81844e-08
3.9966e-05
6.75617e-08
4.14657e-05
6.61172e-08
4.30198e-05
6.39787e-08
4.46302e-05
6.12616e-08
4.62992e-05
5.80353e-08
4.80291e-05
5.43739e-08
4.98223e-05
5.04092e-08
5.16813e-05
4.61638e-08
5.36086e-05
4.15918e-08
5.56069e-05
3.67426e-08
5.76787e-05
3.16539e-08
5.98267e-05
2.62615e-08
6.20539e-05
2.05257e-08
6.4363e-05
1.4702e-08
6.67574e-05
6.92408e-05
7.58007e-08
3.44531e-05
7.49218e-08
3.57627e-05
7.53323e-08
3.712e-05
7.5237e-08
3.85189e-05
7.41709e-08
3.99671e-05
7.25041e-08
4.14674e-05
7.03308e-08
4.30219e-05
6.77303e-08
4.46328e-05
6.46806e-08
4.63023e-05
6.11894e-08
4.80326e-05
5.73218e-08
4.98262e-05
5.30852e-08
5.16855e-05
4.854e-08
5.36132e-05
4.37531e-08
5.56117e-05
3.87011e-08
5.76837e-05
3.33421e-08
5.98321e-05
2.77246e-08
6.20595e-05
2.16792e-08
6.4369e-05
1.5654e-08
6.67634e-05
6.92474e-05
9.27424e-08
8.89169e-08
8.7015e-08
8.46566e-08
8.1838e-08
7.87084e-08
7.53488e-08
7.17163e-08
6.78131e-08
6.36423e-08
5.91777e-08
5.44899e-08
4.96015e-08
4.44725e-08
3.91047e-08
3.35514e-08
2.77851e-08
2.17322e-08
1.52958e-08
)
;

boundaryField
{
    movingWall
    {
        type            calculated;
        value           nonuniform List<scalar> 
60
(
1.32836e-08
1.3845e-08
1.68119e-08
1.72295e-08
2.10396e-08
2.12344e-08
2.59453e-08
2.59919e-08
3.13804e-08
3.15059e-08
3.72519e-08
3.7774e-08
4.36162e-08
4.44402e-08
5.08732e-08
5.11262e-08
5.94223e-08
5.78769e-08
6.91638e-08
6.5558e-08
7.94643e-08
7.50701e-08
9.0247e-08
8.57914e-08
1.02824e-07
9.64255e-08
1.17543e-07
1.08733e-07
1.31879e-07
1.24789e-07
1.46595e-07
1.4208e-07
1.64014e-07
1.61694e-07
1.77668e-07
1.83469e-07
1.94183e-07
2.01209e-07
2.11013e-07
2.14592e-07
6.27179e-10
3.56768e-10
1.81007e-09
1.52097e-09
2.98846e-09
2.55646e-09
4.09498e-09
3.71116e-09
5.07382e-09
4.79881e-09
6.00842e-09
5.87578e-09
6.88536e-09
6.80997e-09
7.67655e-09
7.60316e-09
8.38024e-09
8.24964e-09
8.96739e-09
8.75593e-09
)
;
    }
    leftSide
    {
        type            calculated;
        value           nonuniform List<scalar> 
20
(
-3.4585e-05
-3.587e-05
-3.72028e-05
-3.85851e-05
-4.00187e-05
-4.15056e-05
-4.30477e-05
-4.46472e-05
-4.6306e-05
-4.80265e-05
-4.9811e-05
-5.16617e-05
-5.35812e-05
-5.5572e-05
-5.76368e-05
-5.97783e-05
-6.19993e-05
-6.43029e-05
-6.66921e-05
-6.91701e-05
)
;
    }
    rightSide
    {
        type            calculated;
        value           nonuniform List<scalar> 
20
(
1.3967e-05
3.07275e-05
3.6923e-05
3.94056e-05
4.10443e-05
4.25868e-05
4.41671e-05
4.58041e-05
4.75016e-05
4.92618e-05
5.10871e-05
5.29802e-05
5.49433e-05
5.69793e-05
5.9091e-05
6.12814e-05
6.35534e-05
6.59108e-05
6.83558e-05
7.08934e-05
)
;
    }
    bottomWall
    {
        type            calculated;
        value           uniform 0;
    }