/*--------------------------------*- C++ -*----------------------------------*\
  =========                 |
  \\      /  F ield         | OpenFOAM: The Open Source CFD Toolbox
   \\    /   O peration     | Website:  https://openfoam.org
    \\  /    A nd           | Version:  10
     \\/     M anipulation  |
\*---------------------------------------------------------------------------*/
FoamFile
{
    format      ascii;
    class       volVectorField;
    location    "0.9";
    object      U;
}
// * * * * * * * * * * * * * * * * * * * * * * * * * * * * * * * * * * * * * //

dimensions      [0 1 -1 0 0 0 0];

internalField   nonuniform List<vector> 
1200
(
(0 0.00221202 0.992395)
(0 0.00391444 0.997447)
(0 0.00324366 0.998046)
(0 0.00295257 0.998565)
(0 0.00279688 0.999002)
(0 0.00265243 0.999364)
(0 0.00251544 0.99967)
(0 0.00237779 0.999934)
(0 0.0022441 1.00016)
(0 0.00210311 1.00036)
(0 0.00195999 1.00054)
(0 0.00181112 1.00069)
(0 0.00165673 1.00083)
(0 0.00149573 1.00094)
(0 0.00133102 1.00104)
(0 0.00115866 1.00112)
(0 0.000975422 1.00119)
(0 0.00078623 1.00125)
(0 0.000631031 1.00129)
(0 0.000292983 1.00133)
(0 0.00301656 0.984859)
(0 0.0050903 0.997597)
(0 0.00391989 0.998158)
(0 0.00351636 0.998551)
(0 0.00327521 0.998921)
(0 0.00305493 0.999271)
(0 0.00285076 0.999585)
(0 0.00266088 0.999863)
(0 0.00247432 1.0001)
(0 0.00229738 1.00032)
(0 0.00212071 1.0005)
(0 0.00194383 1.00066)
(0 0.00176522 1.00081)
(0 0.00158564 1.00093)
(0 0.00140078 1.00103)
(0 0.00120966 1.00112)
(0 0.00101715 1.0012)
(0 0.00081646 1.00126)
(0 0.00064858 1.00131)
(0 0.000294884 1.00136)
(0 0.0036194 0.9777)
(0 0.0059699 0.997903)
(0 0.00447937 0.99844)
(0 0.00403149 0.998886)
(0 0.00373319 0.999294)
(0 0.00345491 0.999642)
(0 0.00320205 0.999944)
(0 0.00296726 1.00021)
(0 0.00275484 1.00044)
(0 0.0025494 1.00064)
(0 0.00234999 1.00082)
(0 0.00215282 1.00098)
(0 0.00195631 1.00111)
(0 0.00175648 1.00123)
(0 0.0015536 1.00132)
(0 0.00134922 1.00141)
(0 0.00113301 1.00148)
(0 0.000909209 1.00153)
(0 0.000735141 1.00158)
(0 0.000344749 1.00162)
(0 0.00393393 0.970329)
(0 0.0064621 0.998487)
(0 0.00488881 0.998997)
(0 0.00448919 0.999214)
(0 0.00416199 0.999476)
(0 0.00383303 0.999754)
(0 0.00352554 1.00002)
(0 0.00324635 1.00027)
(0 0.00298362 1.00049)
(0 0.00274089 1.00068)
(0 0.00250932 1.00086)
(0 0.00228403 1.00101)
(0 0.00206111 1.00115)
(0 0.00184079 1.00126)
(0 0.00162139 1.00137)
(0 0.00139485 1.00145)
(0 0.00116883 1.00153)
(0 0.000937325 1.00159)
(0 0.000745558 1.00163)
(0 0.000341053 1.00169)
(0 0.0040446 0.962756)
(0 0.00661627 0.998958)
(0 0.00509356 0.999615)
(0 0.00482269 0.999864)
(0 0.00451123 1.00012)
(0 0.00416805 1.00035)
(0 0.00384391 1.00056)
(0 0.00353996 1.00076)
(0 0.00326361 1.00095)
(0 0.00300168 1.00112)
(0 0.00274941 1.00127)
(0 0.00250484 1.00141)
(0 0.00226646 1.00153)
(0 0.00202878 1.00163)
(0 0.00178702 1.00172)
(0 0.00154872 1.00179)
(0 0.0013 1.00186)
(0 0.00104003 1.00191)
(0 0.000846496 1.00195)
(0 0.00040099 1.002)
(0 0.00403756 0.954567)
(0 0.00658013 0.99948)
(0 0.0051461 1.00036)
(0 0.00502609 1.00039)
(0 0.00474706 1.00047)
(0 0.00440429 1.00061)
(0 0.00406453 1.00077)
(0 0.00374494 1.00093)
(0 0.0034397 1.00109)
(0 0.00315181 1.00124)
(0 0.00287738 1.00138)
(0 0.00261183 1.00151)
(0 0.00235009 1.00162)
(0 0.00209196 1.00172)
(0 0.00184099 1.00181)
(0 0.00158257 1.00188)
(0 0.00132229 1.00195)
(0 0.0010607 1.002)
(0 0.000847832 1.00204)
(0 0.000390665 1.00209)
(0 0.00401314 0.946023)
(0 0.00649788 0.999646)
(0 0.0051363 1.00098)
(0 0.00515488 1.00111)
(0 0.00492053 1.00123)
(0 0.0046058 1.00132)
(0 0.00428865 1.00143)
(0 0.00397684 1.00154)
(0 0.00367958 1.00165)
(0 0.00339116 1.00177)
(0 0.00310784 1.00187)
(0 0.00282979 1.00197)
(0 0.00255785 1.00206)
(0 0.00228913 1.00214)
(0 0.0020136 1.00221)
(0 0.00174243 1.00227)
(0 0.00146582 1.00233)
(0 0.00117239 1.00237)
(0 0.000960105 1.00241)
(0 0.000459679 1.00245)
(0 0.00399721 0.936837)
(0 0.00642778 0.999784)
(0 0.00509051 1.00161)
(0 0.00519217 1.0016)
(0 0.00498107 1.00159)
(0 0.00468384 1.00163)
(0 0.00437551 1.00169)
(0 0.00407134 1.00177)
(0 0.00376899 1.00186)
(0 0.00347073 1.00195)
(0 0.00317803 1.00204)
(0 0.00289105 1.00212)
(0 0.00260534 1.00221)
(0 0.0023194 1.00228)
(0 0.00204261 1.00235)
(0 0.00176045 1.0024)
(0 0.00146968 1.00245)
(0 0.00118027 1.0025)
(0 0.000953477 1.00253)
(0 0.000444399 1.00257)
(0 0.0040167 0.927372)
(0 0.00644127 0.999524)
(0 0.00512055 1.00205)
(0 0.00527221 1.00222)
(0 0.00507093 1.00229)
(0 0.00479635 1.00233)
(0 0.0045202 1.00236)
(0 0.00424172 1.00241)
(0 0.00396158 1.00246)
(0 0.0036775 1.00252)
(0 0.00339 1.00258)
(0 0.00309868 1.00264)
(0 0.00280715 1.00269)
(0 0.00251832 1.00275)
(0 0.00221963 1.0028)
(0 0.0019189 1.00284)
(0 0.001619 1.00288)
(0 0.00129759 1.00291)
(0 0.00106822 1.00294)
(0 0.000516875 1.00298)
(0 0.00404366 0.917334)
(0 0.00647133 0.999285)
(0 0.00514875 1.00253)
(0 0.00530105 1.00258)
(0 0.00507728 1.00257)
(0 0.00479662 1.00258)
(0 0.00452051 1.00261)
(0 0.00424662 1.00264)
(0 0.0039686 1.00269)
(0 0.00368483 1.00273)
(0 0.00339444 1.00278)
(0 0.00310381 1.00283)
(0 0.00281083 1.00288)
(0 0.00251132 1.00293)
(0 0.00221587 1.00297)
(0 0.0019194 1.00301)
(0 0.00160536 1.00305)
(0 0.00128907 1.00308)
(0 0.00105648 1.0031)
(0 0.000500706 1.00314)
(0 0.00407777 0.907093)
(0 0.00655656 0.998698)
(0 0.00527074 1.00283)
(0 0.00543496 1.00309)
(0 0.005188 1.00317)
(0 0.00491129 1.00321)
(0 0.00465547 1.00324)
(0 0.00440208 1.00327)
(0 0.00414354 1.00329)
(0 0.00387282 1.00332)
(0 0.00359561 1.00335)
(0 0.00330573 1.00338)
(0 0.0030064 1.00341)
(0 0.00270585 1.00344)
(0 0.00239616 1.00347)
(0 0.0020736 1.00349)
(0 0.00175432 1.00352)
(0 0.00141216 1.00354)
(0 0.00116846 1.00356)
(0 0.000570604 1.0036)
(0 0.0040956 0.896294)
(0 0.00660342 0.998163)
(0 0.00534776 1.00324)
(0 0.00549875 1.00339)
(0 0.00521394 1.0034)
(0 0.00491125 1.00342)
(0 0.00463627 1.00345)
(0 0.00437059 1.00348)
(0 0.0041016 1.00352)
(0 0.00383032 1.00355)
(0 0.00354554 1.00357)
(0 0.00325761 1.0036)
(0 0.00296665 1.00363)
(0 0.00266536 1.00365)
(0 0.00235706 1.00368)
(0 0.00205226 1.0037)
(0 0.00172626 1.00372)
(0 0.00138609 1.00374)
(0 0.00115369 1.00376)
(0 0.000558161 1.00379)
(0 0.00410445 0.885313)
(0 0.00666916 0.997318)
(0 0.00548082 1.00352)
(0 0.00566061 1.00388)
(0 0.0053642 1.00397)
(0 0.00506928 1.00403)
(0 0.00480966 1.00406)
(0 0.00455555 1.0041)
(0 0.00430165 1.00413)
(0 0.00403112 1.00415)
(0 0.00375785 1.00417)
(0 0.00347013 1.00418)
(0 0.00316753 1.0042)
(0 0.00285747 1.00421)
(0 0.00254354 1.00422)
(0 0.00220888 1.00423)
(0 0.00187005 1.00424)
(0 0.00151111 1.00426)
(0 0.00126017 1.00427)
(0 0.000621377 1.0043)
(0 0.00409721 0.873747)
(0 0.00669054 0.996497)
(0 0.0055511 1.00392)
(0 0.00572144 1.00419)
(0 0.00539859 1.0042)
(0 0.00507791 1.00423)
(0 0.00479052 1.00427)
(0 0.00451719 1.00431)
(0 0.00423644 1.00434)
(0 0.00396249 1.00437)
(0 0.00367417 1.0044)
(0 0.00338274 1.00442)
(0 0.00308961 1.00443)
(0 0.0027899 1.00445)
(0 0.00247368 1.00446)
(0 0.00215849 1.00447)
(0 0.00182932 1.00449)
(0 0.00147025 1.0045)
(0 0.00123736 1.00451)
(0 0.000610824 1.00453)
(0 0.00408466 0.861989)
(0 0.00672279 0.995376)
(0 0.00565192 1.00425)
(0 0.00586483 1.00475)
(0 0.00555406 1.00483)
(0 0.00526019 1.00488)
(0 0.00500207 1.00492)
(0 0.00473928 1.00496)
(0 0.00448192 1.00499)
(0 0.00420077 1.00501)
(0 0.00391809 1.00503)
(0 0.00362384 1.00504)
(0 0.00331613 1.00505)
(0 0.00299383 1.00505)
(0 0.00267107 1.00506)
(0 0.00233327 1.00506)
(0 0.00197561 1.00506)
(0 0.00159743 1.00507)
(0 0.00134922 1.00507)
(0 0.000674257 1.00509)
(0 0.00406372 0.849613)
(0 0.00673285 0.994235)
(0 0.00571279 1.00463)
(0 0.00590113 1.00507)
(0 0.00556584 1.00508)
(0 0.00524922 1.0051)
(0 0.00495846 1.00514)
(0 0.00468321 1.00517)
(0 0.00438731 1.00521)
(0 0.00410275 1.00524)
(0 0.00380633 1.00526)
(0 0.00350605 1.00528)
(0 0.00320117 1.0053)
(0 0.0028971 1.00531)
(0 0.00257844 1.00532)
(0 0.00224624 1.00532)
(0 0.00191312 1.00534)
(0 0.00154296 1.00534)
(0 0.00130486 1.00534)
(0 0.000653937 1.00537)
(0 0.00404485 0.837014)
(0 0.00675758 0.992751)
(0 0.00579552 1.00499)
(0 0.00602587 1.00573)
(0 0.00571512 1.00582)
(0 0.00543819 1.00585)
(0 0.00519797 1.00588)
(0 0.00493311 1.00591)
(0 0.00467586 1.00593)
(0 0.0043882 1.00595)
(0 0.00409268 1.00596)
(0 0.00378591 1.00597)
(0 0.00347155 1.00597)
(0 0.00313855 1.00597)
(0 0.0027958 1.00597)
(0 0.00245592 1.00597)
(0 0.00208523 1.00596)
(0 0.00167915 1.00596)
(0 0.00143902 1.00596)
(0 0.000732909 1.00597)
(0 0.00401726 0.823783)
(0 0.00676406 0.991264)
(0 0.00585778 1.00533)
(0 0.00603988 1.00605)
(0 0.0056927 1.00606)
(0 0.00538831 1.00607)
(0 0.00509798 1.0061)
(0 0.00482928 1.00613)
(0 0.00452732 1.00616)
(0 0.00423308 1.00618)
(0 0.00393144 1.0062)
(0 0.0036259 1.00622)
(0 0.00330882 1.00624)
(0 0.00299135 1.00625)
(0 0.00267521 1.00626)
(0 0.00232818 1.00626)
(0 0.00198128 1.00627)
(0 0.00160552 1.00628)
(0 0.00136217 1.00628)
(0 0.000689065 1.0063)
(0 0.00399722 0.810267)
(0 0.00680584 0.989288)
(0 0.00595065 1.00567)
(0 0.00617661 1.00679)
(0 0.005863 1.0069)
(0 0.00559926 1.00693)
(0 0.0053812 1.00695)
(0 0.00511932 1.00696)
(0 0.00486389 1.00697)
(0 0.00457863 1.00698)
(0 0.00427666 1.00698)
(0 0.00395833 1.00698)
(0 0.003634 1.00698)
(0 0.00329839 1.00697)
(0 0.00293331 1.00696)
(0 0.00257984 1.00696)
(0 0.00220504 1.00695)
(0 0.00176724 1.00694)
(0 0.00152802 1.00694)
(0 0.000794149 1.00695)
(0 0.00396128 0.79615)
(0 0.00679156 0.987467)
(0 0.00600431 1.00601)
(0 0.00616357 1.00712)
(0 0.00579426 1.00714)
(0 0.00549636 1.00715)
(0 0.00519867 1.00717)
(0 0.00493207 1.0072)
(0 0.00463193 1.00722)
(0 0.00433171 1.00724)
(0 0.00402725 1.00726)
(0 0.0037206 1.00727)
(0 0.00340428 1.00729)
(0 0.00307153 1.00729)
(0 0.002754 1.0073)
(0 0.00241017 1.00731)
(0 0.00204557 1.00731)
(0 0.00165959 1.00732)
(0 0.00142146 1.00731)
(0 0.000726571 1.00733)
(0 0.00393943 0.78163)
(0 0.00686664 0.984819)
(0 0.00612925 1.00622)
(0 0.00634467 1.0079)
(0 0.00603031 1.00806)
(0 0.00577041 1.00809)
(0 0.00556769 1.0081)
(0 0.0053096 1.0081)
(0 0.0050499 1.0081)
(0 0.00476575 1.0081)
(0 0.00446154 1.00809)
(0 0.00413874 1.00808)
(0 0.00379633 1.00807)
(0 0.0034581 1.00806)
(0 0.00308606 1.00805)
(0 0.00270386 1.00803)
(0 0.00232347 1.00803)
(0 0.00186552 1.00802)
(0 0.00161328 1.00801)
(0 0.000849557 1.00803)
(0 0.00389473 0.766608)
(0 0.00681389 0.982711)
(0 0.00615398 1.00665)
(0 0.00628545 1.00829)
(0 0.00588584 1.00832)
(0 0.00558787 1.00834)
(0 0.00527763 1.00836)
(0 0.00500102 1.00839)
(0 0.00470144 1.00841)
(0 0.00439805 1.00843)
(0 0.00409343 1.00844)
(0 0.00378059 1.00845)
(0 0.00347677 1.00846)
(0 0.00314382 1.00846)
(0 0.00281056 1.00846)
(0 0.00248268 1.00847)
(0 0.00211703 1.00846)
(0 0.00170819 1.00846)
(0 0.00148516 1.00846)
(0 0.000774533 1.00847)
(0 0.00386873 0.750987)
(0 0.00692745 0.97917)
(0 0.00632563 1.00658)
(0 0.00653398 1.00904)
(0 0.00623106 1.00928)
(0 0.00597302 1.00931)
(0 0.0057759 1.00933)
(0 0.00552187 1.00933)
(0 0.00525246 1.00932)
(0 0.00496126 1.00931)
(0 0.00464392 1.0093)
(0 0.00432222 1.00929)
(0 0.00396156 1.00927)
(0 0.00360077 1.00925)
(0 0.00323669 1.00924)
(0 0.00283171 1.00922)
(0 0.00242649 1.00921)
(0 0.00196059 1.00921)
(0 0.00169684 1.00919)
(0 0.000898277 1.00921)
(0 0.00381698 0.735061)
(0 0.0068372 0.976842)
(0 0.00630468 1.00719)
(0 0.0064065 1.00955)
(0 0.00597267 1.00962)
(0 0.00566777 1.00963)
(0 0.00534761 1.00965)
(0 0.00505405 1.00968)
(0 0.00475185 1.00971)
(0 0.00444442 1.00972)
(0 0.00415061 1.00974)
(0 0.00382999 1.00974)
(0 0.00352575 1.00975)
(0 0.00321599 1.00975)
(0 0.00286843 1.00973)
(0 0.00253634 1.00973)
(0 0.00219233 1.00973)
(0 0.00176297 1.00971)
(0 0.00154352 1.00971)
(0 0.000824162 1.00972)
(0 0.00378432 0.718226)
(0 0.00697755 0.972159)
(0 0.00653627 1.00673)
(0 0.00674306 1.01024)
(0 0.00646202 1.0106)
(0 0.00621155 1.01064)
(0 0.00601205 1.01065)
(0 0.00575904 1.01065)
(0 0.00547423 1.01064)
(0 0.00517497 1.01063)
(0 0.00482881 1.01061)
(0 0.00449357 1.0106)
(0 0.00413425 1.01059)
(0 0.00373477 1.01057)
(0 0.00335577 1.01056)
(0 0.00295845 1.01054)
(0 0.00252269 1.01052)
(0 0.00203478 1.01052)
(0 0.00178178 1.01051)
(0 0.000952785 1.01051)
(0 0.00372595 0.701446)
(0 0.00685586 0.969679)
(0 0.00643978 1.00752)
(0 0.00651015 1.01088)
(0 0.00604457 1.01101)
(0 0.0057266 1.01103)
(0 0.00540193 1.01106)
(0 0.00509558 1.01109)
(0 0.00480072 1.01111)
(0 0.00448552 1.01112)
(0 0.00420542 1.01114)
(0 0.00390224 1.01114)
(0 0.00357567 1.01113)
(0 0.00328049 1.01113)
(0 0.00295518 1.01112)
(0 0.00259497 1.0111)
(0 0.00225489 1.0111)
(0 0.00182739 1.01109)
(0 0.00159538 1.01107)
(0 0.000862542 1.01109)
(0 0.00368288 0.683235)
(0 0.00702302 0.963601)
(0 0.00677497 1.00664)
(0 0.00698721 1.01156)
(0 0.00673335 1.01205)
(0 0.00649466 1.0121)
(0 0.00628409 1.0121)
(0 0.00602389 1.01209)
(0 0.00570542 1.01208)
(0 0.00539534 1.01208)
(0 0.00503247 1.01206)
(0 0.00464802 1.01204)
(0 0.00428898 1.01204)
(0 0.00388157 1.01202)
(0 0.00345154 1.012)
(0 0.00305785 1.01199)
(0 0.00262875 1.01198)
(0 0.00210285 1.01197)
(0 0.00186036 1.01196)
(0 0.00101421 1.01196)
(0 0.00362686 0.665728)
(0 0.00684443 0.960982)
(0 0.00652294 1.00754)
(0 0.00655974 1.01226)
(0 0.0060706 1.01254)
(0 0.00574618 1.01257)
(0 0.00543248 1.0126)
(0 0.00512101 1.01263)
(0 0.00484974 1.01265)
(0 0.00454166 1.01266)
(0 0.0042464 1.01267)
(0 0.003982 1.01267)
(0 0.00366319 1.01266)
(0 0.00333856 1.01264)
(0 0.00303984 1.01264)
(0 0.00268469 1.01262)
(0 0.00231297 1.0126)
(0 0.0018826 1.01259)
(0 0.00165819 1.01258)
(0 0.000905505 1.01258)
(0 0.00355457 0.645902)
(0 0.00709412 0.953344)
(0 0.00707824 1.00626)
(0 0.0072977 1.01294)
(0 0.00706243 1.01361)
(0 0.00682173 1.01366)
(0 0.00658101 1.01365)
(0 0.00631117 1.01365)
(0 0.00595498 1.01363)
(0 0.0055975 1.01363)
(0 0.00523963 1.01362)
(0 0.00481474 1.01361)
(0 0.00440253 1.0136)
(0 0.00401248 1.01359)
(0 0.00357086 1.01357)
(0 0.00313608 1.01355)
(0 0.00272019 1.01355)
(0 0.00218356 1.01354)
(0 0.00192294 1.01352)
(0 0.00105973 1.01353)
(0 0.00353129 0.62792)
(0 0.00677677 0.950403)
(0 0.00653434 1.00713)
(0 0.00654814 1.01377)
(0 0.00604961 1.01429)
(0 0.00572766 1.01434)
(0 0.00544769 1.01437)
(0 0.00514102 1.01438)
(0 0.00488238 1.01439)
(0 0.00462973 1.0144)
(0 0.00432516 1.01438)
(0 0.00404924 1.01436)
(0 0.00377591 1.01435)
(0 0.00343663 1.01433)
(0 0.00309639 1.0143)
(0 0.00276579 1.01429)
(0 0.00239913 1.01427)
(0 0.00193446 1.01425)
(0 0.00172935 1.01424)
(0 0.000967699 1.01423)
(0 0.00338672 0.60619)
(0 0.00718353 0.941336)
(0 0.00742254 1.00547)
(0 0.00764042 1.0143)
(0 0.00740006 1.0152)
(0 0.00714199 1.01527)
(0 0.00684066 1.01527)
(0 0.00653321 1.01527)
(0 0.00616828 1.01528)
(0 0.00574248 1.01527)
(0 0.00535574 1.01528)
(0 0.00496328 1.01528)
(0 0.00451516 1.01527)
(0 0.0040897 1.01526)
(0 0.00368332 1.01526)
(0 0.00323585 1.01524)
(0 0.0027794 1.01523)
(0 0.00224346 1.01523)
(0 0.00198298 1.01522)
(0 0.00109686 1.01523)
(0 0.00341881 0.588054)
(0 0.00666281 0.937473)
(0 0.00651569 1.00613)
(0 0.00653044 1.01542)
(0 0.00605834 1.01632)
(0 0.00574286 1.01639)
(0 0.00550736 1.0164)
(0 0.0052433 1.01638)
(0 0.00496702 1.01635)
(0 0.00474217 1.01633)
(0 0.00448599 1.01629)
(0 0.00416788 1.01624)
(0 0.00387305 1.0162)
(0 0.0035735 1.01617)
(0 0.00320986 1.01613)
(0 0.0028423 1.01609)
(0 0.0025036 1.01606)
(0 0.00202382 1.01604)
(0 0.00180156 1.01602)
(0 0.00102616 1.01601)
(0 0.00319684 0.56428)
(0 0.00722603 0.927612)
(0 0.00769339 1.0043)
(0 0.00789493 1.01574)
(0 0.00760749 1.01695)
(0 0.00732057 1.01705)
(0 0.00696101 1.01707)
(0 0.00656776 1.01709)
(0 0.00619282 1.01712)
(0 0.00577438 1.01713)
(0 0.00533072 1.01713)
(0 0.00494066 1.01714)
(0 0.00454746 1.01715)
(0 0.00410493 1.01713)
(0 0.00367875 1.01712)
(0 0.00327287 1.01712)
(0 0.00282606 1.0171)
(0 0.00227328 1.01709)
(0 0.00203458 1.01708)
(0 0.00114264 1.01709)
(0 0.00324784 0.546026)
(0 0.00652541 0.921682)
(0 0.00652625 1.00416)
(0 0.00657212 1.01695)
(0 0.00617976 1.0184)
(0 0.00589564 1.01851)
(0 0.00568123 1.01849)
(0 0.00547908 1.01845)
(0 0.00521853 1.0184)
(0 0.00493314 1.01834)
(0 0.00467577 1.01829)
(0 0.00438015 1.01824)
(0 0.00402549 1.01817)
(0 0.00368238 1.01812)
(0 0.00334284 1.01807)
(0 0.00295681 1.01801)
(0 0.00258032 1.01796)
(0 0.00209252 1.01793)
(0 0.00188038 1.0179)
(0 0.00108692 1.01788)
(0 0.00304011 0.520759)
(0 0.00724345 0.912141)
(0 0.00787604 1.00276)
(0 0.00801318 1.01743)
(0 0.00761786 1.01908)
(0 0.00726052 1.01921)
(0 0.00687874 1.01924)
(0 0.00643844 1.01925)
(0 0.006014 1.01926)
(0 0.00563805 1.01927)
(0 0.0052394 1.01927)
(0 0.00481343 1.01925)
(0 0.00442286 1.01924)
(0 0.00403943 1.01923)
(0 0.00361495 1.01921)
(0 0.00319416 1.01919)
(0 0.00279002 1.01917)
(0 0.00225442 1.01915)
(0 0.00201733 1.01914)
(0 0.0011526 1.01914)
(0 0.00286981 0.50152)
(0 0.00621615 0.902667)
(0 0.00644347 1.00096)
(0 0.00658244 1.01818)
(0 0.00631192 1.02039)
(0 0.00610042 1.02057)
(0 0.00588175 1.02053)
(0 0.00566431 1.02047)
(0 0.00543466 1.02041)
(0 0.00514213 1.02035)
(0 0.00481306 1.02029)
(0 0.00450026 1.02023)
(0 0.00416908 1.02018)
(0 0.00379004 1.02012)
(0 0.00340749 1.02007)
(0 0.00303524 1.02002)
(0 0.00266211 1.01998)
(0 0.00214549 1.01994)
(0 0.00194724 1.01991)
(0 0.00114854 1.0199)
(0 0.00299319 0.477681)
(0 0.00720859 0.895106)
(0 0.00788357 1.00056)
(0 0.00790039 1.01916)
(0 0.00740133 1.02145)
(0 0.00697074 1.02165)
(0 0.00658862 1.02166)
(0 0.00620126 1.02164)
(0 0.00580065 1.02161)
(0 0.00541796 1.02158)
(0 0.00507223 1.02154)
(0 0.00471672 1.02149)
(0 0.00432589 1.02143)
(0 0.00393816 1.02138)
(0 0.00356051 1.02133)
(0 0.00316174 1.02128)
(0 0.00275171 1.02124)
(0 0.00222483 1.02121)
(0 0.00201325 1.02118)
(0 0.00117293 1.02117)
(0 0.00214056 0.453539)
(0 0.00576417 0.88025)
(0 0.006307 0.996674)
(0 0.00653988 1.01933)
(0 0.0063257 1.0225)
(0 0.00614194 1.02277)
(0 0.00591523 1.02272)
(0 0.00564287 1.02265)
(0 0.00535298 1.02258)
(0 0.00505873 1.02252)
(0 0.00473541 1.02245)
(0 0.00438287 1.02239)
(0 0.00403875 1.02232)
(0 0.0037032 1.02226)
(0 0.00334478 1.0222)
(0 0.00297034 1.02214)
(0 0.00262948 1.02209)
(0 0.00213663 1.02205)
(0 0.00195036 1.02202)
(0 0.0011727 1.022)
(0 0.00263304 0.438986)
(0 0.00658076 0.876895)
(0 0.00724893 0.997225)
(0 0.00725859 1.02048)
(0 0.00681259 1.02366)
(0 0.00645563 1.02394)
(0 0.00614489 1.0239)
(0 0.00583241 1.02383)
(0 0.00551797 1.02376)
(0 0.00519369 1.02368)
(0 0.00485602 1.0236)
(0 0.00451876 1.02352)
(0 0.0041781 1.02344)
(0 0.00381386 1.02337)
(0 0.00343228 1.02329)
(0 0.00305856 1.02322)
(0 0.00269081 1.02315)
(0 0.00217784 1.0231)
(0 0.00198858 1.02305)
(0 0.00118646 1.02302)
(0 0.00164746 0.4034)
(0 0.00542261 0.855659)
(0 0.00610999 0.991342)
(0 0.0062738 1.02009)
(0 0.00599634 1.02445)
(0 0.00576904 1.02487)
(0 0.00552023 1.02483)
(0 0.0052469 1.02474)
(0 0.00496325 1.02464)
(0 0.00467007 1.02454)
(0 0.00437174 1.02444)
(0 0.00407111 1.02434)
(0 0.0037612 1.02424)
(0 0.00343889 1.02415)
(0 0.00310991 1.02405)
(0 0.00277559 1.02397)
(0 0.00247068 1.02389)
(0 0.00200257 1.02383)
(0 0.00186379 1.02377)
(0 0.00116452 1.02374)
(0 3.55014e-05 0.995517)
(0 3.10081e-05 0.999711)
(0 -2.98086e-06 1.00006)
(0 -4.54191e-06 1.00007)
(0 -1.28629e-05 1.00007)
(0 -9.69308e-06 1.00008)
(0 -9.7205e-06 1.00008)
(0 -4.2627e-06 1.00008)
(0 1.08905e-07 1.00008)
(0 4.69302e-06 1.00008)
(0 1.01839e-05 1.00008)
(0 1.40536e-05 1.00008)
(0 1.75419e-05 1.00008)
(0 2.05144e-05 1.00008)
(0 2.27395e-05 1.00008)
(0 2.25606e-05 1.00008)
(0 2.19399e-05 1.00007)
(0 2.01216e-05 1.00007)
(0 1.73239e-05 1.00007)
(0 1.02693e-05 1.00007)
(0 -0.000112611 1.0044)
(0 -0.000133371 1.00025)
(0 -8.5242e-06 0.999949)
(0 2.35596e-05 0.999922)
(0 3.05959e-05 0.999913)
(0 3.31769e-05 0.99991)
(0 4.30779e-05 0.99991)
(0 4.96381e-05 0.999911)
(0 5.67638e-05 0.999912)
(0 6.45223e-05 0.999915)
(0 6.82564e-05 0.999917)
(0 7.03983e-05 0.999921)
(0 7.10692e-05 0.999924)
(0 6.81654e-05 0.999927)
(0 6.22748e-05 0.99993)
(0 5.60627e-05 0.999934)
(0 4.80158e-05 0.999937)
(0 3.7346e-05 0.999938)
(0 2.50142e-05 0.999941)
(0 6.77085e-06 0.999943)
(0 8.74911e-07 0.995675)
(0 -1.19684e-05 0.999735)
(0 -2.19721e-05 1.00005)
(0 -9.27426e-06 1.00005)
(0 -5.12913e-06 1.00005)
(0 1.07064e-05 1.00005)
(0 2.43426e-05 1.00006)
(0 4.29776e-05 1.00006)
(0 6.23197e-05 1.00007)
(0 7.91277e-05 1.00007)
(0 9.3393e-05 1.00008)
(0 0.000106174 1.00008)
(0 0.000113048 1.00009)
(0 0.000115323 1.00009)
(0 0.000114588 1.0001)
(0 0.000108224 1.0001)
(0 9.62565e-05 1.0001)
(0 8.22524e-05 1.0001)
(0 6.49799e-05 1.0001)
(0 2.96739e-05 1.00011)
(0 -0.000105334 1.00408)
(0 -0.000128745 1.00014)
(0 -2.43595e-05 0.999899)
(0 4.93126e-06 0.999867)
(0 3.46485e-05 0.999855)
(0 5.76131e-05 0.999856)
(0 8.35815e-05 0.999865)
(0 0.000106138 0.999879)
(0 0.000126226 0.999894)
(0 0.000143373 0.99991)
(0 0.000156574 0.999925)
(0 0.000162893 0.999939)
(0 0.000164392 0.999952)
(0 0.000161524 0.999964)
(0 0.000152085 0.999974)
(0 0.000137099 0.999981)
(0 0.00012014 0.999989)
(0 9.87133e-05 0.999993)
(0 7.13176e-05 0.999997)
(0 2.61743e-05 1)
(0 2.29293e-05 0.995767)
(0 2.40657e-05 0.999669)
(0 -2.3807e-05 0.999945)
(0 -1.96202e-05 0.999957)
(0 1.28884e-05 0.999967)
(0 5.41907e-05 0.999979)
(0 8.8808e-05 0.999997)
(0 0.000123337 1.00002)
(0 0.000155251 1.00004)
(0 0.000182338 1.00006)
(0 0.000201029 1.00008)
(0 0.000215579 1.0001)
(0 0.000222561 1.00012)
(0 0.000220941 1.00013)
(0 0.000212071 1.00014)
(0 0.000196888 1.00015)
(0 0.000172661 1.00016)
(0 0.000143809 1.00017)
(0 0.00011438 1.00017)
(0 5.17084e-05 1.00018)
(0 -7.17063e-05 1.00374)
(0 -8.08564e-05 0.999966)
(0 -1.59624e-05 0.999782)
(0 4.48335e-06 0.999762)
(0 6.36234e-05 0.999763)
(0 0.000115148 0.999779)
(0 0.000162346 0.999806)
(0 0.000200971 0.999839)
(0 0.000232746 0.999874)
(0 0.000255609 0.999907)
(0 0.000273335 0.99994)
(0 0.000280459 0.99997)
(0 0.000277674 0.999997)
(0 0.000268693 1.00002)
(0 0.00025294 1.00004)
(0 0.000228316 1.00006)
(0 0.000197691 1.00007)
(0 0.000161928 1.00008)
(0 0.000118961 1.00009)
(0 4.63089e-05 1.0001)
(0 4.34287e-05 0.995816)
(0 6.38897e-05 0.999541)
(0 3.21063e-06 0.999771)
(0 1.35594e-05 0.999808)
(0 7.49613e-05 0.999845)
(0 0.000141925 0.999882)
(0 0.000199321 0.999923)
(0 0.000249356 0.999966)
(0 0.000288721 1.00001)
(0 0.000320133 1.00005)
(0 0.000339481 1.00009)
(0 0.000350235 1.00013)
(0 0.000352088 1.00016)
(0 0.000342025 1.00019)
(0 0.000320295 1.00021)
(0 0.000292306 1.00023)
(0 0.000256893 1.00025)
(0 0.000213027 1.00026)
(0 0.000168556 1.00027)
(0 7.58037e-05 1.00028)
(0 -5.62529e-05 1.00338)
(0 -5.02156e-05 0.999743)
(0 2.5082e-05 0.999604)
(0 7.17924e-05 0.99961)
(0 0.000158057 0.99964)
(0 0.000231125 0.999684)
(0 0.000296214 0.999739)
(0 0.000346697 0.999797)
(0 0.000385563 0.999857)
(0 0.000408862 0.999913)
(0 0.000421895 0.999968)
(0 0.000423138 1.00002)
(0 0.000412414 1.00006)
(0 0.000393115 1.0001)
(0 0.000365981 1.00013)
(0 0.000328333 1.00015)
(0 0.000280902 1.00018)
(0 0.000230949 1.00019)
(0 0.000175504 1.00021)
(0 7.15206e-05 1.00022)
(0 3.61585e-05 0.995805)
(0 7.2664e-05 0.999352)
(0 6.61055e-05 0.999541)
(0 0.000126187 0.999614)
(0 0.000215617 0.999693)
(0 0.000297372 0.999769)
(0 0.00036808 0.999842)
(0 0.000427218 0.999915)
(0 0.000468955 0.999985)
(0 0.000498178 1.00005)
(0 0.00051257 1.00011)
(0 0.000512475 1.00017)
(0 0.000501409 1.00022)
(0 0.000478064 1.00026)
(0 0.00044185 1.0003)
(0 0.000396889 1.00033)
(0 0.00034607 1.00035)
(0 0.000284648 1.00037)
(0 0.000223664 1.00039)
(0 0.000100651 1.00041)
(0 -7.03856e-05 1.00297)
(0 -4.37628e-05 0.999474)
(0 0.000116016 0.999389)
(0 0.00023315 0.99943)
(0 0.000344284 0.999498)
(0 0.000425872 0.999582)
(0 0.00049535 0.999672)
(0 0.00054695 0.99976)
(0 0.000583835 0.999847)
(0 0.000601876 0.999928)
(0 0.000604211 1)
(0 0.000593886 1.00007)
(0 0.000570001 1.00013)
(0 0.000534956 1.00018)
(0 0.00049141 1.00023)
(0 0.000438787 1.00026)
(0 0.000372998 1.00029)
(0 0.000305044 1.00032)
(0 0.000235908 1.00034)
(0 9.90206e-05 1.00036)
(0 1.05862e-05 0.995718)
(0 8.06343e-05 0.999112)
(0 0.000193504 0.999297)
(0 0.000333743 0.999415)
(0 0.000449038 0.999541)
(0 0.000533838 0.999661)
(0 0.00060249 0.999771)
(0 0.00065724 0.999878)
(0 0.000692058 0.999976)
(0 0.000710174 1.00007)
(0 0.000712681 1.00015)
(0 0.000697235 1.00023)
(0 0.000668759 1.00029)
(0 0.000627881 1.00035)
(0 0.000574795 1.00039)
(0 0.000510546 1.00043)
(0 0.000442298 1.00047)
(0 0.000363025 1.00049)
(0 0.000284416 1.00052)
(0 0.000128011 1.00054)
(0 -8.57215e-05 1.00249)
(0 6.67516e-06 0.999163)
(0 0.000299777 0.999167)
(0 0.000490532 0.999252)
(0 0.000621779 0.999361)
(0 0.000700633 0.999485)
(0 0.000760418 0.999614)
(0 0.00080056 0.999736)
(0 0.000823731 0.999852)
(0 0.000827578 0.999958)
(0 0.000811873 1.00005)
(0 0.000783605 1.00014)
(0 0.000742446 1.00021)
(0 0.0006894 1.00028)
(0 0.000626243 1.00033)
(0 0.000555719 1.00038)
(0 0.000471691 1.00042)
(0 0.000385148 1.00045)
(0 0.000302247 1.00048)
(0 0.00012997 1.0005)
(0 1.34226e-05 0.995523)
(0 0.00018641 0.998826)
(0 0.000441525 0.999058)
(0 0.000636327 0.999234)
(0 0.000765892 0.999406)
(0 0.000844298 0.999567)
(0 0.000899272 0.999715)
(0 0.000936793 0.999856)
(0 0.00095377 0.999983)
(0 0.000951354 1.0001)
(0 0.000934217 1.0002)
(0 0.000898467 1.00029)
(0 0.00084874 1.00037)
(0 0.000787285 1.00044)
(0 0.000715638 1.0005)
(0 0.000630966 1.00055)
(0 0.000542468 1.00059)
(0 0.000444219 1.00063)
(0 0.000348809 1.00065)
(0 0.000157463 1.00068)
(0 -3.37044e-05 1.00191)
(0 0.000216879 0.99882)
(0 0.000632959 0.99895)
(0 0.000844329 0.999095)
(0 0.000972729 0.999246)
(0 0.00103992 0.999407)
(0 0.00108167 0.999572)
(0 0.00109993 0.999727)
(0 0.00109787 0.99987)
(0 0.00107818 0.999999)
(0 0.00103884 1.00011)
(0 0.000988543 1.00021)
(0 0.000926687 1.0003)
(0 0.000853195 1.00038)
(0 0.000768281 1.00045)
(0 0.000677398 1.00051)
(0 0.000574369 1.00055)
(0 0.000467394 1.00059)
(0 0.000369375 1.00062)
(0 0.000161625 1.00065)
(0 0.000133494 0.995195)
(0 0.000518634 0.998513)
(0 0.000862597 0.998834)
(0 0.00104007 0.999083)
(0 0.00115009 0.999303)
(0 0.00121073 0.999503)
(0 0.00124432 0.999685)
(0 0.00125481 0.999854)
(0 0.00124438 1.00001)
(0 0.00121344 1.00014)
(0 0.00117009 1.00027)
(0 0.00111066 1.00037)
(0 0.00103814 1.00046)
(0 0.000954576 1.00055)
(0 0.000862561 1.00062)
(0 0.000756896 1.00067)
(0 0.000645916 1.00072)
(0 0.000527111 1.00076)
(0 0.000415824 1.00079)
(0 0.000188552 1.00083)
(0 0.000192529 1.00121)
(0 0.000718573 0.998459)
(0 0.00114947 0.998738)
(0 0.00129887 0.998953)
(0 0.00138695 0.999154)
(0 0.00142758 0.999357)
(0 0.00144118 0.999554)
(0 0.0014295 0.999737)
(0 0.00139501 0.999904)
(0 0.00134544 1.00005)
(0 0.00127838 1.00019)
(0 0.00120233 1.0003)
(0 0.00111696 1.0004)
(0 0.00102178 1.00049)
(0 0.000914827 1.00057)
(0 0.000802107 1.00064)
(0 0.000679204 1.00069)
(0 0.000550876 1.00074)
(0 0.00043697 1.00077)
(0 0.000193769 1.00081)
(0 0.000483337 0.994724)
(0 0.00120157 0.998177)
(0 0.00146971 0.998608)
(0 0.00154644 0.998934)
(0 0.0016014 0.999215)
(0 0.00162364 0.999458)
(0 0.00162177 0.999673)
(0 0.00159644 0.999868)
(0 0.00155283 1.00004)
(0 0.00148981 1.0002)
(0 0.00141652 1.00034)
(0 0.00133007 1.00046)
(0 0.00123258 1.00057)
(0 0.00112543 1.00066)
(0 0.00101157 1.00074)
(0 0.000885076 1.0008)
(0 0.000751022 1.00086)
(0 0.000610606 1.00091)
(0 0.000484636 1.00094)
(0 0.000221098 1.00098)
(0 0.000692729 1.0004)
(0 0.00160846 0.998073)
(0 0.00184309 0.998498)
(0 0.00185509 0.998792)
(0 0.00187176 0.999059)
(0 0.00186047 0.999311)
(0 0.00182901 0.999545)
(0 0.00177757 0.999756)
(0 0.0017061 0.999945)
(0 0.00162373 1.00011)
(0 0.00152717 1.00026)
(0 0.00142314 1.0004)
(0 0.00131161 1.00051)
(0 0.00119247 1.00061)
(0 0.00106269 1.0007)
(0 0.000927248 1.00077)
(0 0.000783926 1.00084)
(0 0.000633787 1.00089)
(0 0.0005037 1.00093)
(0 0.00022581 1.00097)
(0 0.00113647 0.994137)
(0 0.00228711 0.997809)
(0 0.00224245 0.998337)
(0 0.0021606 0.998753)
(0 0.00212941 0.999106)
(0 0.00208497 0.999403)
(0 0.00202852 0.999659)
(0 0.00195641 0.999884)
(0 0.00187375 1.00008)
(0 0.00177607 1.00026)
(0 0.00167073 1.00042)
(0 0.00155552 1.00056)
(0 0.00143161 1.00068)
(0 0.00129928 1.00078)
(0 0.00116144 1.00087)
(0 0.00101347 1.00094)
(0 0.000856303 1.001)
(0 0.000693249 1.00105)
(0 0.000553269 1.00109)
(0 0.000254168 1.00113)
(0 0.00150549 0.999501)
(0 0.00289067 0.997635)
(0 0.00268631 0.998197)
(0 0.00252084 0.998584)
(0 0.00243592 0.998928)
(0 0.0023449 0.999241)
(0 0.00224864 0.999521)
(0 0.0021452 0.999769)
(0 0.00203045 0.999986)
(0 0.0019113 1.00018)
(0 0.00178285 1.00035)
(0 0.00164911 1.0005)
(0 0.00150983 1.00063)
(0 0.0013652 1.00074)
(0 0.00121187 1.00084)
(0 0.00105268 1.00092)
(0 0.000887775 1.00099)
(0 0.000715273 1.00105)
(0 0.000568981 1.00109)
(0 0.000257413 1.00114)
)
;

boundaryField
{
    movingWall
    {
        type            zeroGradient;
    }
    leftSide
    {
        type            fixedValue;
        value           uniform (0 0 1);
    }
    rightSide
    {
        type            zeroGradient;
    }
    bottomWall
    {
        type            noSlip;
    }
    bottomWall2
    {
        type            zeroGradient;
    }
    frontAndBack
    {
        type            empty;
    }
}


// ************************************************************************* //
