/*--------------------------------*- C++ -*----------------------------------*\
  =========                 |
  \\      /  F ield         | OpenFOAM: The Open Source CFD Toolbox
   \\    /   O peration     | Website:  https://openfoam.org
    \\  /    A nd           | Version:  10
     \\/     M anipulation  |
\*---------------------------------------------------------------------------*/
FoamFile
{
    format      ascii;
    class       volScalarField;
    location    "0.7";
    object      p;
}
// * * * * * * * * * * * * * * * * * * * * * * * * * * * * * * * * * * * * * //

dimensions      [0 2 -2 0 0 0 0];

internalField   nonuniform List<scalar> 
1200
(
2.51075e-10
-0.00126512
-0.00186158
-0.00233244
-0.00274138
-0.00310064
-0.0034171
-0.00369736
-0.00394712
-0.0041714
-0.00437448
-0.00455887
-0.00472622
-0.00487729
-0.00501212
-0.00513113
-0.00523449
-0.00532126
-0.00538932
-0.00545491
-0.000334141
-0.00143128
-0.00194831
-0.00240758
-0.00282076
-0.0031881
-0.00351347
-0.00380202
-0.0040594
-0.00429055
-0.0044986
-0.00468641
-0.00485634
-0.00500946
-0.00514657
-0.00526786
-0.00537289
-0.00546093
-0.00553005
-0.00559641
-0.00120382
-0.0019135
-0.00226563
-0.00265692
-0.00303538
-0.00338201
-0.003694
-0.00397441
-0.00422722
-0.00445534
-0.00466165
-0.00484839
-0.00501689
-0.00516856
-0.00530443
-0.00542488
-0.00552991
-0.00561855
-0.0056887
-0.00575602
-0.00229047
-0.00263122
-0.00278686
-0.00307417
-0.00338415
-0.00368091
-0.00395817
-0.00421436
-0.00444987
-0.00466609
-0.0048638
-0.00504388
-0.00520759
-0.00535546
-0.005488
-0.00560567
-0.00570836
-0.00579534
-0.0058646
-0.00593216
-0.00333464
-0.00344788
-0.00344565
-0.00362341
-0.00384521
-0.00407416
-0.00430016
-0.00451818
-0.00472605
-0.00492157
-0.00510361
-0.00527223
-0.00542698
-0.00556782
-0.0056951
-0.00580846
-0.00590772
-0.00599215
-0.00605953
-0.0061265
-0.00421219
-0.00423533
-0.00415191
-0.00424282
-0.00437959
-0.0045363
-0.00470409
-0.00487713
-0.00504983
-0.00521829
-0.00537988
-0.00553235
-0.00567464
-0.00580624
-0.0059261
-0.00603363
-0.00612832
-0.00620877
-0.00627314
-0.00633898
-0.00490367
-0.00492233
-0.00482816
-0.00487059
-0.00494356
-0.00503843
-0.00515182
-0.0052785
-0.00541367
-0.00555219
-0.00568945
-0.00582283
-0.00595003
-0.00606923
-0.00617961
-0.00628016
-0.00636946
-0.00644613
-0.00650753
-0.00657165
-0.00544033
-0.00548672
-0.00542513
-0.00545461
-0.00549411
-0.00554769
-0.00561835
-0.00570621
-0.00580705
-0.00591571
-0.00602866
-0.00614206
-0.00625265
-0.00635862
-0.00645797
-0.00654918
-0.00663152
-0.00670318
-0.00676109
-0.00682384
-0.00588294
-0.00595376
-0.00593466
-0.00597549
-0.00600608
-0.0060387
-0.00608421
-0.00614423
-0.00621749
-0.00630136
-0.00639159
-0.00648498
-0.00657944
-0.00667206
-0.00676036
-0.00684297
-0.00691785
-0.0069834
-0.00703649
-0.00709632
-0.00628028
-0.00635921
-0.0063725
-0.00643241
-0.00646897
-0.00649926
-0.00653513
-0.00658034
-0.0066363
-0.006701
-0.0067728
-0.00684957
-0.00692832
-0.00700704
-0.00708432
-0.00715768
-0.00722548
-0.00728599
-0.00733463
-0.00739166
-0.00666833
-0.00674154
-0.00676935
-0.00684255
-0.00689
-0.00692684
-0.00696472
-0.00700737
-0.00705484
-0.00710839
-0.00716775
-0.00723107
-0.00729735
-0.00736504
-0.00743144
-0.00749548
-0.00755584
-0.00761016
-0.00765424
-0.00770845
-0.00706897
-0.00712963
-0.00715801
-0.00723453
-0.00728849
-0.00733426
-0.00737883
-0.00742348
-0.0074705
-0.00752013
-0.00757182
-0.00762639
-0.00768339
-0.00774108
-0.00779917
-0.00785607
-0.00790943
-0.00795832
-0.00799742
-0.00804806
-0.00748398
-0.00753229
-0.00755584
-0.00762674
-0.00768182
-0.00773319
-0.00778333
-0.0078336
-0.00788312
-0.00793208
-0.00798217
-0.00803306
-0.00808381
-0.00813523
-0.00818635
-0.00823572
-0.00828368
-0.00832798
-0.00836283
-0.00841049
-0.00792732
-0.00796652
-0.00798326
-0.00804477
-0.00809472
-0.00814473
-0.00819737
-0.00825007
-0.00830164
-0.00835254
-0.00840173
-0.00844977
-0.00849835
-0.00854636
-0.00859272
-0.00863823
-0.00868104
-0.00872011
-0.00875097
-0.00879546
-0.00838698
-0.00842056
-0.00843448
-0.00848659
-0.00852922
-0.00857607
-0.00862623
-0.00867821
-0.00873101
-0.00878234
-0.00883209
-0.00888087
-0.00892726
-0.00897182
-0.00901635
-0.0090587
-0.00909857
-0.00913578
-0.00916299
-0.00920412
-0.00887281
-0.00890428
-0.0089173
-0.00896176
-0.00899703
-0.00903659
-0.00908231
-0.00913182
-0.00918112
-0.00923018
-0.00927926
-0.0093265
-0.00937221
-0.00941717
-0.00945866
-0.00949787
-0.00953592
-0.00957038
-0.00959647
-0.00963662
-0.00937988
-0.0094096
-0.00942391
-0.00946451
-0.00949365
-0.00952816
-0.00956871
-0.00961221
-0.00965833
-0.00970525
-0.00975042
-0.00979494
-0.00983969
-0.00988187
-0.00992275
-0.00996236
-0.00999751
-0.0100298
-0.0100529
-0.0100899
-0.0099014
-0.00993077
-0.00994768
-0.0099854
-0.010012
-0.0100431
-0.0100782
-0.0101174
-0.0101586
-0.0101999
-0.010243
-0.0102865
-0.0103271
-0.010367
-0.0104065
-0.0104427
-0.0104781
-0.0105116
-0.0105343
-0.0105706
-0.0104508
-0.0104793
-0.0104979
-0.0105355
-0.0105605
-0.0105885
-0.0106214
-0.0106566
-0.0106922
-0.0107296
-0.0107677
-0.0108046
-0.0108431
-0.0108819
-0.0109168
-0.0109515
-0.0109845
-0.0110141
-0.0110364
-0.0110723
-0.0110097
-0.0110371
-0.0110586
-0.0110964
-0.0111217
-0.0111499
-0.0111798
-0.0112111
-0.0112455
-0.0112806
-0.0113146
-0.0113501
-0.0113858
-0.011419
-0.0114542
-0.0114883
-0.0115187
-0.0115486
-0.0115677
-0.0115998
-0.0115971
-0.0116238
-0.0116461
-0.0116839
-0.0117112
-0.0117384
-0.0117663
-0.0117961
-0.0118253
-0.0118547
-0.0118871
-0.0119201
-0.0119507
-0.0119832
-0.0120145
-0.0120433
-0.0120744
-0.0121038
-0.0121242
-0.0121582
-0.0122126
-0.0122373
-0.01226
-0.0122976
-0.0123247
-0.0123528
-0.0123822
-0.0124093
-0.0124357
-0.0124641
-0.0124923
-0.0125197
-0.0125509
-0.0125816
-0.0126091
-0.0126384
-0.0126647
-0.0126887
-0.0127063
-0.0127373
-0.0128429
-0.0128667
-0.0128901
-0.0129256
-0.0129535
-0.0129838
-0.0130126
-0.0130405
-0.0130688
-0.0130946
-0.0131189
-0.0131465
-0.0131732
-0.0131982
-0.0132278
-0.0132551
-0.0132802
-0.0133073
-0.0133233
-0.0133515
-0.0135168
-0.0135396
-0.0135613
-0.0135952
-0.0136219
-0.0136491
-0.0136788
-0.0137092
-0.0137359
-0.0137607
-0.0137868
-0.0138098
-0.0138298
-0.0138542
-0.0138762
-0.0138972
-0.0139225
-0.013946
-0.0139629
-0.0139945
-0.0141997
-0.0142209
-0.0142445
-0.0142778
-0.0143034
-0.0143331
-0.014365
-0.014394
-0.0144234
-0.0144543
-0.0144812
-0.0145045
-0.0145305
-0.0145514
-0.0145689
-0.0145897
-0.0146066
-0.0146236
-0.0146353
-0.0146604
-0.0149129
-0.0149335
-0.0149551
-0.014984
-0.0150087
-0.0150368
-0.0150642
-0.0150938
-0.0151252
-0.0151529
-0.0151792
-0.0152099
-0.0152356
-0.0152572
-0.0152822
-0.0153016
-0.0153188
-0.0153386
-0.0153483
-0.0153717
-0.01569
-0.0157095
-0.0157297
-0.0157591
-0.0157814
-0.0158026
-0.0158272
-0.0158539
-0.0158765
-0.0158988
-0.0159257
-0.0159479
-0.0159679
-0.0159942
-0.0160158
-0.0160349
-0.016057
-0.0160756
-0.0160866
-0.0161119
-0.0164742
-0.0164919
-0.0165153
-0.0165451
-0.0165667
-0.0165915
-0.0166166
-0.0166365
-0.0166574
-0.0166834
-0.0167046
-0.0167232
-0.0167485
-0.0167682
-0.0167851
-0.0168067
-0.0168247
-0.0168428
-0.0168552
-0.0168775
-0.0173424
-0.0173596
-0.0173789
-0.0174017
-0.0174222
-0.0174437
-0.0174596
-0.0174756
-0.0174947
-0.0175081
-0.0175205
-0.0175422
-0.0175593
-0.0175726
-0.017592
-0.0176071
-0.0176203
-0.0176385
-0.0176487
-0.0176716
-0.0182624
-0.0182769
-0.0182907
-0.0183134
-0.0183304
-0.0183439
-0.0183603
-0.018379
-0.0183892
-0.0183956
-0.0184094
-0.0184175
-0.0184216
-0.0184351
-0.0184456
-0.018453
-0.0184653
-0.0184766
-0.0184813
-0.0185011
-0.0191773
-0.0191898
-0.0192097
-0.0192313
-0.0192427
-0.019258
-0.0192757
-0.0192852
-0.0192923
-0.0193069
-0.0193143
-0.0193133
-0.0193201
-0.0193234
-0.0193227
-0.019329
-0.0193353
-0.0193438
-0.0193487
-0.019365
-0.0202
-0.020212
-0.0202229
-0.0202317
-0.0202396
-0.0202492
-0.020251
-0.0202504
-0.020258
-0.0202603
-0.0202548
-0.0202588
-0.0202592
-0.0202509
-0.0202479
-0.0202446
-0.0202392
-0.0202401
-0.0202381
-0.0202513
-0.0213091
-0.0213146
-0.0213152
-0.02132
-0.0213175
-0.021308
-0.0212962
-0.0212919
-0.0212816
-0.0212624
-0.0212544
-0.0212463
-0.0212298
-0.0212199
-0.0212105
-0.0211953
-0.0211834
-0.0211751
-0.0211615
-0.0211665
-0.022385
-0.0223808
-0.0223785
-0.0223751
-0.0223597
-0.0223425
-0.0223332
-0.0223168
-0.0222892
-0.0222719
-0.0222536
-0.0222249
-0.0222032
-0.0221858
-0.0221645
-0.0221477
-0.0221358
-0.0221274
-0.0221164
-0.022118
-0.0236811
-0.0236742
-0.0236491
-0.0236119
-0.023565
-0.0235264
-0.0234817
-0.023426
-0.0233826
-0.0233402
-0.0232869
-0.0232406
-0.0232005
-0.0231569
-0.0231184
-0.0230881
-0.0230621
-0.0230455
-0.0230305
-0.0230324
-0.02505
-0.0250321
-0.0249834
-0.0249254
-0.0248686
-0.0248028
-0.0247239
-0.0246555
-0.0245858
-0.0245028
-0.0244248
-0.0243531
-0.0242773
-0.0242041
-0.0241378
-0.0240757
-0.0240208
-0.0239768
-0.0239388
-0.0239259
-0.0264459
-0.0264043
-0.0263172
-0.0262277
-0.0261187
-0.026003
-0.0259032
-0.0258042
-0.0256925
-0.0255859
-0.0254868
-0.0253847
-0.0252841
-0.0251912
-0.0251028
-0.02502
-0.0249464
-0.0248862
-0.0248322
-0.0248062
-0.0277869
-0.0277321
-0.0276305
-0.0274964
-0.027346
-0.02721
-0.0270705
-0.0269165
-0.0267659
-0.0266233
-0.0264807
-0.0263413
-0.0262112
-0.0260889
-0.0259758
-0.0258747
-0.0257854
-0.0257131
-0.0256518
-0.0256185
-0.0296728
-0.0296018
-0.0293337
-0.0290584
-0.0288048
-0.0285632
-0.0283193
-0.0280846
-0.0278632
-0.027649
-0.0274424
-0.0272484
-0.0270673
-0.0268992
-0.0267466
-0.0266102
-0.0264919
-0.0263981
-0.0263144
-0.0262625
-0.0309011
-0.0308397
-0.0305303
-0.0302532
-0.0299503
-0.0296451
-0.0293439
-0.0290533
-0.0287721
-0.0285014
-0.0282447
-0.0280032
-0.0277775
-0.0275698
-0.0273817
-0.0272133
-0.0270627
-0.0269477
-0.0268431
-0.0267563
-0.00378205
-0.00374992
-0.00374075
-0.00375014
-0.00375931
-0.00376979
-0.00378303
-0.00379954
-0.0038203
-0.00384543
-0.00387456
-0.00390725
-0.00394236
-0.00397933
-0.0040171
-0.00405393
-0.00408838
-0.00411878
-0.00414368
-0.00416151
-0.0037576
-0.0037484
-0.0037464
-0.00374728
-0.00375215
-0.00376146
-0.00377475
-0.00379253
-0.0038149
-0.00384156
-0.00387281
-0.00390761
-0.00394493
-0.00398372
-0.00402253
-0.00406054
-0.00409631
-0.00412824
-0.00415478
-0.00417415
-0.00371643
-0.00372503
-0.00373026
-0.00372736
-0.00373155
-0.00374164
-0.00375736
-0.00377891
-0.00380545
-0.00383683
-0.00387205
-0.00391045
-0.00395175
-0.00399393
-0.00403561
-0.00407557
-0.00411249
-0.00414568
-0.00417392
-0.0041956
-0.00366697
-0.0036853
-0.00369573
-0.00369408
-0.00369942
-0.00371303
-0.00373381
-0.00376066
-0.00379351
-0.00383139
-0.0038728
-0.00391702
-0.00396283
-0.00400945
-0.00405576
-0.00409959
-0.00413945
-0.00417408
-0.00420284
-0.00422571
-0.00360811
-0.00362934
-0.00364388
-0.00364654
-0.00365695
-0.00367608
-0.00370365
-0.00373878
-0.00377975
-0.00382524
-0.00387445
-0.00392574
-0.00397787
-0.00402978
-0.00408028
-0.00412838
-0.00417239
-0.0042103
-0.00424136
-0.00426589
-0.00354062
-0.00355833
-0.00357395
-0.00358677
-0.0036062
-0.00363336
-0.00366987
-0.00371447
-0.00376512
-0.00382017
-0.00387794
-0.00393745
-0.00399713
-0.00405522
-0.00411077
-0.00416278
-0.00421022
-0.00425179
-0.0042861
-0.00431363
-0.00346507
-0.00347619
-0.00349096
-0.00351368
-0.00354531
-0.00358515
-0.00363345
-0.00368941
-0.00375121
-0.00381652
-0.00388402
-0.00395227
-0.00401966
-0.00408511
-0.00414677
-0.00420336
-0.00425423
-0.00429863
-0.00433563
-0.00436613
-0.00337889
-0.0033821
-0.00339567
-0.00342825
-0.00347539
-0.00353069
-0.0035932
-0.00366211
-0.00373578
-0.00381282
-0.00389107
-0.00396848
-0.00404414
-0.00411687
-0.00418534
-0.00424813
-0.00430365
-0.00435113
-0.00439002
-0.00442255
-0.00328121
-0.00327661
-0.00329154
-0.00333638
-0.00340112
-0.00347459
-0.00355356
-0.00363655
-0.00372297
-0.00381133
-0.00389989
-0.00398711
-0.00407108
-0.00415066
-0.00422512
-0.00429336
-0.00435418
-0.0044063
-0.00444847
-0.00448353
-0.0031656
-0.0031571
-0.00317882
-0.00323885
-0.00332273
-0.00341591
-0.00351318
-0.00361267
-0.00371319
-0.00381364
-0.0039129
-0.00400928
-0.00410162
-0.00418854
-0.00426888
-0.00434205
-0.00440714
-0.00446306
-0.00450878
-0.00454728
-0.00302953
-0.00302571
-0.0030633
-0.00314354
-0.00324652
-0.00335911
-0.00347529
-0.00359165
-0.0037069
-0.00382012
-0.00393006
-0.00403583
-0.00413618
-0.00422986
-0.00431635
-0.00439477
-0.00446433
-0.00452406
-0.00457265
-0.0046139
-0.00287104
-0.00287908
-0.00294711
-0.00305282
-0.00317657
-0.00330838
-0.00344256
-0.00357599
-0.00370645
-0.00383228
-0.00395292
-0.00406764
-0.0041757
-0.00427647
-0.00436889
-0.00445218
-0.00452571
-0.0045886
-0.00463989
-0.00468391
-0.00268495
-0.00272172
-0.00283188
-0.00296852
-0.00311503
-0.00326554
-0.00341706
-0.00356656
-0.00371128
-0.00384982
-0.00398107
-0.00410438
-0.00421979
-0.00432705
-0.00442562
-0.00451442
-0.00459228
-0.00465831
-0.00471158
-0.00475772
-0.00246866
-0.00255445
-0.00271776
-0.00289072
-0.00306176
-0.00323155
-0.0034
-0.00356486
-0.00372321
-0.00387327
-0.00401437
-0.00414623
-0.00426871
-0.00438198
-0.00448572
-0.00457917
-0.00466131
-0.00473082
-0.00478674
-0.00483547
-0.00221811
-0.0023799
-0.00260417
-0.002817
-0.0030145
-0.00320498
-0.00339066
-0.00356989
-0.00374052
-0.00390147
-0.00405216
-0.00419228
-0.004322
-0.00444125
-0.00454993
-0.0046477
-0.00473346
-0.0048059
-0.00486395
-0.00491528
-0.00193372
-0.00220032
-0.00249064
-0.00274468
-0.00297186
-0.00318551
-0.00338892
-0.00358181
-0.00376379
-0.00393436
-0.00409361
-0.0042418
-0.00437868
-0.00450396
-0.00461748
-0.00471895
-0.00480783
-0.00488294
-0.00494294
-0.00499671
-0.00161367
-0.0020155
-0.00237405
-0.00266918
-0.0029302
-0.00316951
-0.00339155
-0.00359847
-0.00379153
-0.00397158
-0.00413915
-0.00429451
-0.00443804
-0.00456951
-0.00468829
-0.00479387
-0.00488561
-0.00496255
-0.00502359
-0.00507945
-0.00126126
-0.00182601
-0.00225115
-0.0025893
-0.00288636
-0.00315367
-0.00339634
-0.0036181
-0.00382267
-0.00401236
-0.00418816
-0.00435069
-0.00450017
-0.00463675
-0.00476032
-0.00487019
-0.00496546
-0.00504497
-0.00510723
-0.00516492
-0.000874567
-0.00162791
-0.00211874
-0.00250178
-0.00283646
-0.00313387
-0.00339949
-0.00363866
-0.00385635
-0.00405636
-0.00424087
-0.00441062
-0.004566
-0.0047074
-0.00483489
-0.00494826
-0.00504674
-0.00512892
-0.00519303
-0.00525318
-0.00044455
-0.00141634
-0.00197378
-0.00240412
-0.0027775
-0.00310668
-0.00339815
-0.00365756
-0.00389079
-0.00410267
-0.00429638
-0.00447366
-0.00463516
-0.00478126
-0.00491239
-0.00502875
-0.00513002
-0.00521486
-0.00528097
-0.00534389
)
;

boundaryField
{
    movingWall
    {
        type            zeroGradient;
    }
    leftSide
    {
        type            zeroGradient;
    }
    rightSide
    {
        type            zeroGradient;
    }
    bottomWall
    {
        type            zeroGradient;
    }
    bottomWall2
    {
        type            zeroGradient;
    }
    frontAndBack
    {
        type            empty;
    }
}


// ************************************************************************* //
