/*--------------------------------*- C++ -*----------------------------------*\
  =========                 |
  \\      /  F ield         | OpenFOAM: The Open Source CFD Toolbox
   \\    /   O peration     | Website:  https://openfoam.org
    \\  /    A nd           | Version:  10
     \\/     M anipulation  |
\*---------------------------------------------------------------------------*/
FoamFile
{
    format      ascii;
    class       surfaceScalarField;
    location    "0.7";
    object      phi;
}
// * * * * * * * * * * * * * * * * * * * * * * * * * * * * * * * * * * * * * //

dimensions      [0 3 -1 0 0 0 0];

internalField   nonuniform List<scalar> 
2320
(
1.68589e-07
3.42386e-05
-3.44072e-05
1.47197e-07
3.57895e-05
-3.57681e-05
1.37228e-07
3.71343e-05
-3.71243e-05
1.30108e-07
3.8531e-05
-3.85238e-05
1.23792e-07
3.99787e-05
-3.99724e-05
1.17549e-07
4.1479e-05
-4.14727e-05
1.11344e-07
4.30335e-05
-4.30273e-05
1.05209e-07
4.46444e-05
-4.46383e-05
9.90207e-08
4.6314e-05
-4.63078e-05
9.26808e-08
4.80446e-05
-4.80383e-05
8.61291e-08
4.98386e-05
-4.9832e-05
7.92507e-08
5.16984e-05
-5.16915e-05
7.20524e-08
5.36264e-05
-5.36192e-05
6.45907e-08
5.56253e-05
-5.56178e-05
5.68618e-08
5.76977e-05
-5.769e-05
4.88404e-08
5.98464e-05
-5.98384e-05
4.04853e-08
6.20744e-05
-6.2066e-05
3.17365e-08
6.43845e-05
-6.43757e-05
2.24025e-08
6.67798e-05
-6.67705e-05
6.9264e-05
-6.92546e-05
2.26351e-07
3.40122e-05
1.95505e-07
3.58203e-05
1.73937e-07
3.71558e-05
1.60152e-07
3.85447e-05
1.49173e-07
3.99897e-05
1.39353e-07
4.14888e-05
1.30373e-07
4.30425e-05
1.21878e-07
4.46529e-05
1.13679e-07
4.63222e-05
1.05608e-07
4.80527e-05
9.75002e-08
4.98467e-05
8.93107e-08
5.17066e-05
8.09383e-08
5.36348e-05
7.22764e-08
5.5634e-05
6.33194e-08
5.77067e-05
5.41033e-08
5.98557e-05
4.46376e-08
6.20839e-05
3.48689e-08
6.43942e-05
2.49401e-08
6.67897e-05
6.92746e-05
2.6657e-07
3.37457e-05
2.4064e-07
3.58463e-05
2.15547e-07
3.71809e-05
1.93946e-07
3.85663e-05
1.7626e-07
4.00074e-05
1.62437e-07
4.15026e-05
1.50421e-07
4.30545e-05
1.39496e-07
4.46638e-05
1.29241e-07
4.63325e-05
1.1935e-07
4.80626e-05
1.0969e-07
4.98564e-05
1.0008e-07
5.17162e-05
9.04161e-08
5.36445e-05
8.06668e-08
5.56437e-05
7.07268e-08
5.77166e-05
6.05044e-08
5.98659e-05
4.99474e-08
6.20944e-05
3.90462e-08
6.44051e-05
2.78356e-08
6.68009e-05
6.92862e-05
2.88456e-07
3.34572e-05
2.7526e-07
3.58595e-05
2.50152e-07
3.7206e-05
2.26519e-07
3.859e-05
2.06347e-07
4.00275e-05
1.88536e-07
4.15204e-05
1.7333e-07
4.30697e-05
1.59734e-07
4.46774e-05
1.47067e-07
4.63451e-05
1.3509e-07
4.80746e-05
1.23534e-07
4.98679e-05
1.12215e-07
5.17275e-05
1.01011e-07
5.36557e-05
8.97598e-08
5.5655e-05
7.83923e-08
5.7728e-05
6.68821e-08
5.98774e-05
5.5168e-08
6.21061e-05
4.32344e-08
6.44171e-05
3.09281e-08
6.68132e-05
6.92991e-05
2.97096e-07
3.31601e-05
2.9479e-07
3.58618e-05
2.7442e-07
3.72264e-05
2.52465e-07
3.86119e-05
2.31768e-07
4.00482e-05
2.12891e-07
4.15393e-05
1.95398e-07
4.30872e-05
1.79383e-07
4.46934e-05
1.6469e-07
4.63598e-05
1.50853e-07
4.80884e-05
1.37603e-07
4.98812e-05
1.24752e-07
5.17404e-05
1.12107e-07
5.36683e-05
9.9552e-08
5.56675e-05
8.69556e-08
5.77406e-05
7.41802e-08
5.98902e-05
6.11523e-08
6.21192e-05
4.78352e-08
6.44304e-05
3.41766e-08
6.68269e-05
6.93131e-05
3.02536e-07
3.28576e-05
3.06897e-07
3.58574e-05
2.9224e-07
3.72411e-05
2.74369e-07
3.86298e-05
2.55122e-07
4.00675e-05
2.35889e-07
4.15586e-05
2.17518e-07
4.31056e-05
2.00162e-07
4.47108e-05
1.83641e-07
4.63763e-05
1.67899e-07
4.81041e-05
1.52793e-07
4.98963e-05
1.38142e-07
5.1755e-05
1.23845e-07
5.36826e-05
1.09735e-07
5.56816e-05
9.56728e-08
5.77546e-05
8.15678e-08
5.99043e-05
6.7335e-08
6.21334e-05
5.28012e-08
6.44449e-05
3.78373e-08
6.68419e-05
6.93286e-05
3.09681e-07
3.25479e-05
3.15152e-07
3.58519e-05
3.03451e-07
3.72528e-05
2.89281e-07
3.8644e-05
2.72312e-07
4.00844e-05
2.54117e-07
4.15767e-05
2.35951e-07
4.31237e-05
2.18124e-07
4.47286e-05
2.00853e-07
4.63936e-05
1.84115e-07
4.81209e-05
1.67782e-07
4.99126e-05
1.5184e-07
5.17709e-05
1.36148e-07
5.36983e-05
1.20589e-07
5.56972e-05
1.0509e-07
5.77701e-05
8.95409e-08
5.99198e-05
7.37928e-08
6.21491e-05
5.77775e-08
6.44609e-05
4.14749e-08
6.68582e-05
6.93454e-05
3.19827e-07
3.22281e-05
3.2547e-07
3.58463e-05
3.13678e-07
3.72645e-05
3.00204e-07
3.86574e-05
2.85745e-07
4.00989e-05
2.70073e-07
4.15924e-05
2.52892e-07
4.31409e-05
2.35234e-07
4.47463e-05
2.17501e-07
4.64113e-05
1.99887e-07
4.81385e-05
1.82565e-07
4.99299e-05
1.65432e-07
5.17881e-05
1.48454e-07
5.37153e-05
1.31612e-07
5.5714e-05
1.14808e-07
5.77869e-05
9.78928e-08
5.99367e-05
8.07906e-08
6.21662e-05
6.33809e-08
6.44784e-05
4.55359e-08
6.6876e-05
6.93637e-05
3.32484e-07
3.18956e-05
3.39853e-07
3.58389e-05
3.25885e-07
3.72785e-05
3.11901e-07
3.86714e-05
2.97828e-07
4.0113e-05
2.82914e-07
4.16073e-05
2.67078e-07
4.31567e-05
2.50055e-07
4.47633e-05
2.32436e-07
4.6429e-05
2.14639e-07
4.81563e-05
1.96666e-07
4.99479e-05
1.78654e-07
5.18061e-05
1.60649e-07
5.37333e-05
1.42591e-07
5.57321e-05
1.24432e-07
5.78051e-05
1.06179e-07
5.9955e-05
8.77071e-08
6.21847e-05
6.89072e-08
6.44972e-05
4.97792e-08
6.68951e-05
6.93833e-05
3.45965e-07
3.15496e-05
3.56619e-07
3.58283e-05
3.4095e-07
3.72942e-05
3.25807e-07
3.86866e-05
3.11197e-07
4.01276e-05
2.96231e-07
4.16223e-05
2.80658e-07
4.31723e-05
2.64266e-07
4.47797e-05
2.46943e-07
4.64463e-05
2.28874e-07
4.81744e-05
2.10467e-07
4.99663e-05
1.91841e-07
5.18247e-05
1.7295e-07
5.37522e-05
1.53833e-07
5.57512e-05
1.34511e-07
5.78244e-05
1.14879e-07
5.99746e-05
9.49337e-08
6.22047e-05
7.46672e-08
6.45174e-05
5.39264e-08
6.69159e-05
6.94046e-05
3.60889e-07
3.11887e-05
3.76972e-07
3.58122e-05
3.60049e-07
3.73111e-05
3.42728e-07
3.87039e-05
3.26189e-07
4.01441e-05
3.09973e-07
4.16385e-05
2.93655e-07
4.31886e-05
2.77102e-07
4.47962e-05
2.59917e-07
4.64635e-05
2.41985e-07
4.81923e-05
2.23315e-07
4.9985e-05
2.04038e-07
5.1844e-05
1.844e-07
5.37718e-05
1.64479e-07
5.57711e-05
1.44173e-07
5.78447e-05
1.23499e-07
5.99953e-05
1.02422e-07
6.22257e-05
8.08039e-08
6.4539e-05
5.87327e-08
6.6938e-05
6.94273e-05
3.74953e-07
3.08138e-05
3.9685e-07
3.57903e-05
3.80586e-07
3.73274e-05
3.62383e-07
3.87221e-05
3.44483e-07
4.0162e-05
3.27031e-07
4.1656e-05
3.09751e-07
4.32059e-05
2.92205e-07
4.48138e-05
2.74358e-07
4.64813e-05
2.55979e-07
4.82107e-05
2.36907e-07
5.00041e-05
2.17185e-07
5.18637e-05
1.96773e-07
5.37922e-05
1.75693e-07
5.57922e-05
1.54142e-07
5.78663e-05
1.32175e-07
6.00173e-05
1.09681e-07
6.22482e-05
8.66891e-08
6.4562e-05
6.30578e-08
6.69616e-05
6.94516e-05
3.89025e-07
3.04248e-05
4.16964e-07
3.57623e-05
4.00986e-07
3.73433e-05
3.81938e-07
3.87411e-05
3.62733e-07
4.01812e-05
3.43818e-07
4.16749e-05
3.25114e-07
4.32246e-05
3.06552e-07
4.48323e-05
2.87763e-07
4.65001e-05
2.68549e-07
4.82299e-05
2.48905e-07
5.00237e-05
2.28641e-07
5.1884e-05
2.07742e-07
5.38131e-05
1.86255e-07
5.58137e-05
1.64068e-07
5.78884e-05
1.4108e-07
6.00403e-05
1.17453e-07
6.22719e-05
9.31634e-08
6.45863e-05
6.82133e-08
6.69865e-05
6.94773e-05
4.03601e-07
3.00212e-05
4.38611e-07
3.57273e-05
4.24477e-07
3.73575e-05
4.06038e-07
3.87596e-05
3.86696e-07
4.02006e-05
3.66902e-07
4.16947e-05
3.46826e-07
4.32447e-05
3.26469e-07
4.48527e-05
3.06005e-07
4.65206e-05
2.85463e-07
4.82504e-05
2.64437e-07
5.00447e-05
2.42817e-07
5.19056e-05
2.20587e-07
5.38354e-05
1.97644e-07
5.58366e-05
1.74025e-07
5.79121e-05
1.49884e-07
6.00644e-05
1.25012e-07
6.22967e-05
9.92602e-08
6.46121e-05
7.26936e-08
6.70131e-05
6.95046e-05
4.16688e-07
2.96045e-05
4.56499e-07
3.56875e-05
4.42392e-07
3.73716e-05
4.2381e-07
3.87782e-05
4.04337e-07
4.022e-05
3.84065e-07
4.17149e-05
3.63307e-07
4.32655e-05
3.42292e-07
4.48737e-05
3.20981e-07
4.65419e-05
2.99244e-07
4.82722e-05
2.77335e-07
5.00666e-05
2.55155e-07
5.19278e-05
2.32356e-07
5.38582e-05
2.0879e-07
5.58602e-05
1.84455e-07
5.79364e-05
1.59157e-07
6.00897e-05
1.32998e-07
6.23229e-05
1.0618e-07
6.46389e-05
7.84452e-08
6.70408e-05
6.95334e-05
4.32579e-07
2.91719e-05
4.80961e-07
3.56391e-05
4.68466e-07
3.73841e-05
4.50311e-07
3.87963e-05
4.30661e-07
4.02397e-05
4.09851e-07
4.17358e-05
3.88194e-07
4.32871e-05
3.65923e-07
4.4896e-05
3.43089e-07
4.65647e-05
3.19831e-07
4.82954e-05
2.9597e-07
5.00905e-05
2.71466e-07
5.19523e-05
2.46546e-07
5.38831e-05
2.21239e-07
5.58855e-05
1.95246e-07
5.79624e-05
1.6847e-07
6.01165e-05
1.40875e-07
6.23505e-05
1.1213e-07
6.46676e-05
8.25155e-08
6.70705e-05
6.95637e-05
4.46147e-07
2.87258e-05
4.98852e-07
3.55864e-05
4.85537e-07
3.73974e-05
4.66485e-07
3.88154e-05
4.46543e-07
4.02596e-05
4.25886e-07
4.17564e-05
4.04272e-07
4.33087e-05
3.81715e-07
4.49185e-05
3.58531e-07
4.65879e-05
3.34807e-07
4.83192e-05
3.10534e-07
5.01148e-05
2.85782e-07
5.1977e-05
2.60287e-07
5.39086e-05
2.33884e-07
5.59119e-05
2.06749e-07
5.79895e-05
1.79008e-07
6.01442e-05
1.50322e-07
6.23792e-05
1.20734e-07
6.46972e-05
8.99581e-08
6.71012e-05
6.95959e-05
4.62506e-07
2.82632e-05
5.25171e-07
3.55238e-05
5.13535e-07
3.7409e-05
4.94397e-07
3.88345e-05
4.73983e-07
4.028e-05
4.52493e-07
4.17779e-05
4.30056e-07
4.33312e-05
4.06644e-07
4.4942e-05
3.82149e-07
4.66124e-05
3.56548e-07
4.83448e-05
3.30252e-07
5.01411e-05
3.03249e-07
5.2004e-05
2.75641e-07
5.39362e-05
2.4744e-07
5.59401e-05
2.18465e-07
5.80185e-05
1.8835e-07
6.01743e-05
1.57386e-07
6.24101e-05
1.25608e-07
6.4729e-05
9.29746e-08
6.71339e-05
6.96293e-05
4.78189e-07
2.77851e-05
5.46537e-07
3.54554e-05
5.33693e-07
3.74219e-05
5.12938e-07
3.88553e-05
4.913e-07
4.03017e-05
4.69245e-07
4.18e-05
4.46475e-07
4.33539e-05
4.2292e-07
4.49655e-05
3.9847e-07
4.66368e-05
3.73326e-07
4.83699e-05
3.47036e-07
5.01674e-05
3.19659e-07
5.20314e-05
2.91341e-07
5.39645e-05
2.62215e-07
5.59692e-05
2.32206e-07
5.80485e-05
2.0152e-07
6.0205e-05
1.69845e-07
6.24418e-05
1.36714e-07
6.47621e-05
1.02291e-07
6.71683e-05
6.9665e-05
4.94183e-07
2.72909e-05
5.73185e-07
3.53764e-05
5.63026e-07
3.7432e-05
5.4227e-07
3.8876e-05
5.20106e-07
4.03239e-05
4.96866e-07
4.18232e-05
4.72672e-07
4.33781e-05
4.47351e-07
4.49908e-05
4.21156e-07
4.6663e-05
3.93756e-07
4.83973e-05
3.65533e-07
5.01956e-05
3.36517e-07
5.20604e-05
3.06512e-07
5.39945e-05
2.75334e-07
5.60004e-05
2.43207e-07
5.80806e-05
2.1011e-07
6.02381e-05
1.75997e-07
6.24759e-05
1.41304e-07
6.47968e-05
1.05557e-07
6.7204e-05
6.97021e-05
5.11799e-07
2.67791e-05
5.98667e-07
3.52896e-05
5.87077e-07
3.74436e-05
5.64551e-07
3.88985e-05
5.40885e-07
4.03475e-05
5.16828e-07
4.18473e-05
4.92143e-07
4.34028e-05
4.66974e-07
4.5016e-05
4.40701e-07
4.66893e-05
4.13445e-07
4.84245e-05
3.85036e-07
5.0224e-05
3.55338e-07
5.20901e-05
3.24524e-07
5.40253e-05
2.92731e-07
5.60322e-05
2.59779e-07
5.81136e-05
2.25395e-07
6.02725e-05
1.89826e-07
6.25115e-05
1.52795e-07
6.48339e-05
1.1459e-07
6.72422e-05
6.97413e-05
5.28669e-07
2.62504e-05
6.27809e-07
3.51904e-05
6.20321e-07
3.74511e-05
5.97877e-07
3.8921e-05
5.73098e-07
4.03723e-05
5.47098e-07
4.18733e-05
5.20229e-07
4.34297e-05
4.92183e-07
4.5044e-05
4.63388e-07
4.67181e-05
4.33817e-07
4.84541e-05
4.03175e-07
5.02546e-05
3.71565e-07
5.21217e-05
3.38886e-07
5.4058e-05
3.05148e-07
5.60659e-05
2.70294e-07
5.81484e-05
2.34631e-07
6.03082e-05
1.97871e-07
6.25483e-05
1.59758e-07
6.4872e-05
1.20136e-07
6.72819e-05
6.97825e-05
5.46059e-07
2.57043e-05
6.5317e-07
3.50833e-05
6.44027e-07
3.74603e-05
6.20015e-07
3.8945e-05
5.94452e-07
4.03979e-05
5.6824e-07
4.18995e-05
5.41205e-07
4.34567e-05
5.13551e-07
4.50717e-05
4.85073e-07
4.67466e-05
4.55312e-07
4.84839e-05
4.24532e-07
5.02854e-05
3.92521e-07
5.21537e-05
3.59172e-07
5.40913e-05
3.24227e-07
5.61009e-05
2.87886e-07
5.81848e-05
2.5004e-07
6.0346e-05
2.10659e-07
6.25876e-05
1.70263e-07
6.49124e-05
1.28758e-07
6.73234e-05
6.98255e-05
5.65473e-07
2.51389e-05
6.89038e-07
3.49597e-05
6.84865e-07
3.74644e-05
6.60664e-07
3.89692e-05
6.33135e-07
4.04254e-05
6.04144e-07
4.19285e-05
5.74011e-07
4.34869e-05
5.42912e-07
4.51028e-05
5.10711e-07
4.67788e-05
4.77966e-07
4.85166e-05
4.44377e-07
5.0319e-05
4.0983e-07
5.21883e-05
3.74182e-07
5.4127e-05
3.37602e-07
5.61375e-05
2.99857e-07
5.82225e-05
2.60596e-07
6.03853e-05
2.20094e-07
6.26281e-05
1.7781e-07
6.49547e-05
1.33763e-07
6.73674e-05
6.98706e-05
5.81714e-07
2.45572e-05
7.11577e-07
3.48299e-05
7.06308e-07
3.74697e-05
6.80868e-07
3.89946e-05
6.53308e-07
4.04529e-05
6.24922e-07
4.19568e-05
5.95671e-07
4.35161e-05
5.65107e-07
4.51334e-05
5.33594e-07
4.68103e-05
5.00832e-07
4.85494e-05
4.66863e-07
5.0353e-05
4.31765e-07
5.22234e-05
3.95578e-07
5.41632e-05
3.58064e-07
5.6175e-05
3.18898e-07
5.82617e-05
2.78476e-07
6.04257e-05
2.36395e-07
6.26702e-05
1.92661e-07
6.49984e-05
1.47285e-07
6.74128e-05
6.99183e-05
6.02926e-07
2.39542e-05
7.53164e-07
3.46796e-05
7.52732e-07
3.74701e-05
7.26504e-07
3.90209e-05
6.96295e-07
4.04832e-05
6.64477e-07
4.19887e-05
6.31227e-07
4.35494e-05
5.97061e-07
4.51675e-05
5.61773e-07
4.68456e-05
5.25219e-07
4.85859e-05
4.87583e-07
5.03906e-05
4.48885e-07
5.22621e-05
4.09176e-07
5.42029e-05
3.68282e-07
5.62159e-05
3.26576e-07
5.83034e-05
2.83669e-07
6.04686e-05
2.39361e-07
6.27145e-05
1.93753e-07
6.5044e-05
1.46588e-07
6.746e-05
6.99667e-05
6.19789e-07
2.33344e-05
7.79208e-07
3.45202e-05
7.801e-07
3.74692e-05
7.53614e-07
3.90474e-05
7.237e-07
4.05131e-05
6.928e-07
4.20196e-05
6.60968e-07
4.35812e-05
6.27921e-07
4.52006e-05
5.93319e-07
4.68802e-05
5.57478e-07
4.86218e-05
5.2015e-07
5.04279e-05
4.81251e-07
5.2301e-05
4.4056e-07
5.42436e-05
3.98471e-07
5.6258e-05
3.54921e-07
5.8347e-05
3.09723e-07
6.05138e-05
2.63184e-07
6.27611e-05
2.15012e-07
6.50922e-05
1.64994e-07
6.751e-05
7.00187e-05
6.3794e-07
2.26965e-05
8.1455e-07
3.43436e-05
8.19104e-07
3.74647e-05
7.90857e-07
3.90756e-05
7.57658e-07
4.05463e-05
7.2276e-07
4.20545e-05
6.86722e-07
4.36172e-05
6.49224e-07
4.52381e-05
6.1078e-07
4.69186e-05
5.71221e-07
4.86613e-05
5.30706e-07
5.04685e-05
4.89167e-07
5.23425e-05
4.467e-07
5.4286e-05
4.03115e-07
5.63015e-05
3.57824e-07
5.83922e-05
3.11217e-07
6.05604e-05
2.63287e-07
6.2809e-05
2.1386e-07
6.51416e-05
1.63185e-07
6.75606e-05
7.00709e-05
6.59812e-07
2.20367e-05
8.54664e-07
3.41488e-05
8.63136e-07
3.74562e-05
8.34932e-07
3.91038e-05
8.01616e-07
4.05796e-05
7.67305e-07
4.20888e-05
7.31719e-07
4.36528e-05
6.95139e-07
4.52747e-05
6.57055e-07
4.69567e-05
6.1728e-07
4.87011e-05
5.75643e-07
5.05101e-05
5.32215e-07
5.2386e-05
4.87333e-07
5.43309e-05
4.40593e-07
5.63483e-05
3.92577e-07
5.84403e-05
3.43198e-07
6.06098e-05
2.9171e-07
6.28605e-05
2.38485e-07
6.51948e-05
1.83318e-07
6.76158e-05
7.01281e-05
6.74685e-07
2.1362e-05
8.83072e-07
3.39404e-05
8.93941e-07
3.74453e-05
8.62791e-07
3.9135e-05
8.25112e-07
4.06173e-05
7.85466e-07
4.21284e-05
7.45048e-07
4.36932e-05
7.03786e-07
4.53159e-05
6.61932e-07
4.69986e-05
6.19516e-07
4.87435e-05
5.76221e-07
5.05534e-05
5.32058e-07
5.24301e-05
4.86194e-07
5.43768e-05
4.39039e-07
5.63954e-05
3.90682e-07
5.84886e-05
3.40538e-07
6.06599e-05
2.89326e-07
6.29117e-05
2.366e-07
6.52475e-05
1.81931e-07
6.76705e-05
7.01844e-05
6.91254e-07
2.06708e-05
9.19449e-07
3.37122e-05
9.38047e-07
3.74267e-05
9.09721e-07
3.91633e-05
8.73853e-07
4.06531e-05
8.36536e-07
4.21657e-05
7.97423e-07
4.37323e-05
7.56633e-07
4.53567e-05
7.14224e-07
4.7041e-05
6.70056e-07
4.87877e-05
6.24679e-07
5.05988e-05
5.77667e-07
5.24771e-05
5.2925e-07
5.44252e-05
4.79426e-07
5.64453e-05
4.2744e-07
5.85406e-05
3.73712e-07
6.07136e-05
3.18125e-07
6.29673e-05
2.60791e-07
6.53049e-05
2.02048e-07
6.77292e-05
7.02451e-05
7.12782e-07
1.9958e-05
9.58751e-07
3.34662e-05
9.7639e-07
3.74091e-05
9.41011e-07
3.91987e-05
8.97824e-07
4.06963e-05
8.52617e-07
4.22109e-05
8.06708e-07
4.37782e-05
7.60291e-07
4.54031e-05
7.13133e-07
4.70881e-05
6.65522e-07
4.88353e-05
6.17044e-07
5.06472e-05
5.67923e-07
5.25263e-05
5.18583e-07
5.44745e-05
4.68432e-07
5.64954e-05
4.1743e-07
5.85916e-05
3.6547e-07
6.07656e-05
3.11899e-07
6.30209e-05
2.56092e-07
6.53607e-05
1.97977e-07
6.77873e-05
7.03051e-05
7.19299e-07
1.92387e-05
9.85645e-07
3.31999e-05
1.01615e-06
3.73786e-05
9.87283e-07
3.92275e-05
9.47784e-07
4.07358e-05
9.06419e-07
4.22523e-05
8.63548e-07
4.38211e-05
8.1892e-07
4.54477e-05
7.72705e-07
4.71344e-05
7.24533e-07
4.88835e-05
6.74613e-07
5.06972e-05
6.2324e-07
5.25776e-05
5.69997e-07
5.45278e-05
5.15057e-07
5.65503e-05
4.59094e-07
5.86476e-05
4.0178e-07
6.08229e-05
3.42985e-07
6.30796e-05
2.83231e-07
6.54204e-05
2.21739e-07
6.78488e-05
7.03689e-05
7.27288e-07
1.85114e-05
1.00227e-06
3.29249e-05
1.02785e-06
3.7353e-05
9.88176e-07
3.92672e-05
9.38237e-07
4.07858e-05
8.86923e-07
4.23036e-05
8.35727e-07
4.38723e-05
7.85053e-07
4.54984e-05
7.34335e-07
4.71851e-05
6.83867e-07
4.8934e-05
6.3347e-07
5.07476e-05
5.82577e-07
5.26285e-05
5.30884e-07
5.45795e-05
4.7872e-07
5.66025e-05
4.25571e-07
5.87007e-05
3.71423e-07
6.08771e-05
3.16882e-07
6.31342e-05
2.61272e-07
6.5476e-05
2.04945e-07
6.79052e-05
7.0426e-05
7.31462e-07
1.77799e-05
1.0344e-06
3.26219e-05
1.07776e-06
3.73097e-05
1.05047e-06
3.92945e-05
1.00926e-06
4.0827e-05
9.64876e-07
4.2348e-05
9.18157e-07
4.3919e-05
8.68845e-07
4.55477e-05
8.17857e-07
4.72361e-05
7.65147e-07
4.89867e-05
7.10978e-07
5.08017e-05
6.5552e-07
5.2684e-05
5.9925e-07
5.46357e-05
5.4195e-07
5.66598e-05
4.83524e-07
5.87591e-05
4.24028e-07
6.09366e-05
3.62814e-07
6.31954e-05
3.00374e-07
6.55385e-05
2.36219e-07
6.79693e-05
7.04922e-05
7.09918e-07
1.707e-05
1.00665e-06
3.23252e-05
1.03694e-06
3.72794e-05
9.89154e-07
3.93423e-05
9.3048e-07
4.08856e-05
8.72114e-07
4.24064e-05
8.15988e-07
4.39752e-05
7.62375e-07
4.56013e-05
7.10341e-07
4.72881e-05
6.59748e-07
4.90373e-05
6.09981e-07
5.08515e-05
5.60836e-07
5.27331e-05
5.12194e-07
5.46844e-05
4.63613e-07
5.67084e-05
4.14824e-07
5.88079e-05
3.65602e-07
6.09858e-05
3.15913e-07
6.32451e-05
2.64653e-07
6.55897e-05
2.11955e-07
6.8022e-05
7.0547e-05
6.79313e-07
1.63907e-05
9.9241e-07
3.20121e-05
1.04846e-06
3.72233e-05
1.02714e-06
3.93636e-05
9.85759e-07
4.0927e-05
9.39533e-07
4.24526e-05
8.90188e-07
4.40245e-05
8.38426e-07
4.56531e-05
7.85351e-07
4.73412e-05
7.31269e-07
4.90913e-05
6.76523e-07
5.09062e-05
6.21655e-07
5.2788e-05
5.66471e-07
5.47396e-05
5.11123e-07
5.67637e-05
4.55987e-07
5.88631e-05
4.00845e-07
6.10409e-05
3.45369e-07
6.33006e-05
2.90576e-07
6.56445e-05
2.35308e-07
6.80773e-05
7.06033e-05
6.09061e-07
1.57816e-05
8.72601e-07
3.17486e-05
8.92009e-07
3.72039e-05
8.38795e-07
3.94168e-05
7.78491e-07
4.09873e-05
7.22253e-07
4.25088e-05
6.69733e-07
4.4077e-05
6.21128e-07
4.57017e-05
5.75085e-07
4.73872e-05
5.31004e-07
4.91354e-05
4.88731e-07
5.09485e-05
4.47912e-07
5.28288e-05
4.08234e-07
5.47793e-05
3.69675e-07
5.68023e-05
3.31768e-07
5.8901e-05
2.94771e-07
6.10779e-05
2.58436e-07
6.33369e-05
2.21435e-07
6.56815e-05
1.85424e-07
6.81133e-05
7.06388e-05
5.5985e-07
1.52218e-05
8.7272e-07
3.14357e-05
9.36644e-07
3.714e-05
9.10932e-07
3.94425e-05
8.65257e-07
4.1033e-05
8.13586e-07
4.25605e-05
7.6183e-07
4.41288e-05
7.09811e-07
4.57537e-05
6.58495e-07
4.74385e-05
6.08387e-07
4.91855e-05
5.59804e-07
5.09971e-05
5.12542e-07
5.28761e-05
4.66796e-07
5.4825e-05
4.22487e-07
5.68466e-05
3.79399e-07
5.89441e-05
3.36966e-07
6.11204e-05
2.959e-07
6.3378e-05
2.55446e-07
6.5722e-05
2.1435e-07
6.81544e-05
7.06773e-05
1.75119e-07
2.88345e-07
3.04873e-07
2.89742e-07
2.6856e-07
2.49898e-07
2.33221e-07
2.18386e-07
2.0527e-07
1.93722e-07
1.83373e-07
1.74154e-07
1.65988e-07
1.58622e-07
1.52053e-07
1.46334e-07
1.40926e-07
1.36014e-07
1.31793e-07
2.78863e-09
3.45859e-05
2.84673e-09
3.587e-05
1.71792e-09
3.72039e-05
1.09216e-09
3.85857e-05
8.38269e-10
4.00189e-05
7.66402e-10
4.15057e-05
8.19188e-10
4.30477e-05
9.32013e-10
4.46471e-05
1.06931e-09
4.63059e-05
1.23816e-09
4.80264e-05
1.39419e-09
4.98108e-05
1.50342e-09
5.16616e-05
1.54095e-09
5.35812e-05
1.50142e-09
5.5572e-05
1.44855e-09
5.76368e-05
1.37786e-09
5.97783e-05
1.26841e-09
6.19995e-05
1.08265e-09
6.43031e-05
7.6842e-10
6.66924e-05
6.91705e-05
-8.77443e-09
3.45875e-05
-4.64627e-09
3.58658e-05
-1.7198e-11
3.71993e-05
1.35876e-09
3.85843e-05
1.8165e-09
4.00185e-05
2.28755e-09
4.15052e-05
2.86784e-09
4.30471e-05
3.46326e-09
4.46465e-05
4.01789e-09
4.63053e-05
4.42661e-09
4.8026e-05
4.67818e-09
4.98106e-05
4.82536e-09
5.16614e-05
4.84786e-09
5.35811e-05
4.72863e-09
5.55722e-05
4.38916e-09
5.76372e-05
3.84482e-09
5.97789e-05
3.19451e-09
6.20001e-05
2.50208e-09
6.43038e-05
1.69319e-09
6.66932e-05
6.91714e-05
1.65307e-09
3.45871e-05
1.07532e-09
3.58664e-05
7.10473e-10
3.71997e-05
1.80298e-09
3.85832e-05
2.56648e-09
4.00177e-05
3.31092e-09
4.15044e-05
4.17764e-09
4.30462e-05
5.05664e-09
4.46456e-05
5.9112e-09
4.63045e-05
6.66444e-09
4.80252e-05
7.25585e-09
4.981e-05
7.57923e-09
5.16611e-05
7.63217e-09
5.35811e-05
7.45715e-09
5.55723e-05
7.06839e-09
5.76376e-05
6.45693e-09
5.97795e-05
5.55895e-09
6.2001e-05
4.39903e-09
6.4305e-05
2.93221e-09
6.66947e-05
6.9173e-05
-4.78832e-09
3.45865e-05
-2.87449e-09
3.58645e-05
4.88639e-10
3.71963e-05
2.32665e-09
3.85814e-05
3.9959e-09
4.00161e-05
5.44271e-09
4.1503e-05
6.82019e-09
4.30449e-05
8.09455e-09
4.46443e-05
9.15329e-09
4.63034e-05
9.92931e-09
4.80244e-05
1.04517e-08
4.98094e-05
1.0709e-08
5.16609e-05
1.06508e-08
5.35811e-05
1.02274e-08
5.55728e-05
9.46398e-09
5.76383e-05
8.43113e-09
5.97805e-05
7.18785e-09
6.20022e-05
5.69141e-09
6.43065e-05
3.99907e-09
6.66964e-05
6.91749e-05
4.04304e-09
3.45851e-05
2.70462e-09
3.58659e-05
9.967e-10
3.7198e-05
2.41176e-09
3.858e-05
4.65022e-09
4.00138e-05
6.7221e-09
4.15009e-05
8.50127e-09
4.30431e-05
1.01163e-08
4.46427e-05
1.14819e-08
4.63021e-05
1.25701e-08
4.80233e-05
1.32789e-08
4.98087e-05
1.3563e-08
5.16606e-05
1.34764e-08
5.35812e-05
1.30167e-08
5.55732e-05
1.2142e-08
5.76392e-05
1.08523e-08
5.97818e-05
9.15142e-09
6.20039e-05
7.08239e-09
6.43085e-05
4.86547e-09
6.66986e-05
6.91773e-05
-1.66526e-09
3.45842e-05
1.5835e-11
3.58642e-05
1.95195e-09
3.71961e-05
4.0703e-09
3.85778e-05
6.83389e-09
4.00111e-05
9.69436e-09
4.14981e-05
1.20128e-08
4.30408e-05
1.38297e-08
4.46409e-05
1.51871e-08
4.63007e-05
1.61342e-08
4.80224e-05
1.66533e-08
4.98082e-05
1.67619e-08
5.16605e-05
1.64195e-08
5.35816e-05
1.56108e-08
5.5574e-05
1.4403e-08
5.76404e-05
1.28056e-08
5.97834e-05
1.08309e-08
6.20059e-05
8.53519e-09
6.43108e-05
5.95181e-09
6.67012e-05
6.91801e-05
5.87329e-09
3.45825e-05
4.91736e-09
3.58651e-05
3.90271e-09
3.71971e-05
5.86235e-09
3.85759e-05
8.7672e-09
4.00081e-05
1.18188e-08
4.1495e-05
1.45043e-08
4.30381e-05
1.66701e-08
4.46387e-05
1.8307e-08
4.62991e-05
1.9397e-08
4.80213e-05
1.99339e-08
4.98077e-05
1.99164e-08
5.16605e-05
1.9395e-08
5.35821e-05
1.84223e-08
5.5575e-05
1.69672e-08
5.76419e-05
1.50257e-08
5.97854e-05
1.26277e-08
6.20083e-05
9.85027e-09
6.43136e-05
6.83507e-09
6.67042e-05
6.91833e-05
-2.17294e-10
3.45815e-05
2.47794e-09
3.58624e-05
6.13647e-09
3.71934e-05
9.17375e-09
3.85728e-05
1.25255e-08
4.00048e-05
1.57867e-08
4.14918e-05
1.86766e-08
4.30352e-05
2.08426e-08
4.46365e-05
2.23038e-08
4.62976e-05
2.31509e-08
4.80205e-05
2.34221e-08
4.98074e-05
2.31362e-08
5.16608e-05
2.22943e-08
5.35829e-05
2.09115e-08
5.55764e-05
1.90807e-08
5.76437e-05
1.68585e-08
5.97876e-05
1.4269e-08
6.20109e-05
1.12924e-08
6.43166e-05
7.93791e-09
6.67076e-05
6.9187e-05
5.23462e-09
3.45806e-05
6.95559e-09
3.58607e-05
9.16324e-09
3.71912e-05
1.2674e-08
3.85693e-05
1.61758e-08
4.00013e-05
1.94457e-08
4.14885e-05
2.23146e-08
4.30323e-05
2.46058e-08
4.46343e-05
2.62055e-08
4.6296e-05
2.70074e-08
4.80197e-05
2.70868e-08
4.98073e-05
2.65419e-08
5.16613e-05
2.54293e-08
5.3584e-05
2.38019e-08
5.5578e-05
2.16336e-08
5.76459e-05
1.89353e-08
5.97903e-05
1.58055e-08
6.2014e-05
1.23414e-08
6.432e-05
8.64982e-09
6.67113e-05
6.9191e-05
8.98902e-11
3.45794e-05
4.74321e-09
3.58561e-05
1.18842e-08
3.71841e-05
1.70436e-08
3.85642e-05
2.10832e-08
3.99973e-05
2.43335e-08
4.14852e-05
2.69647e-08
4.30297e-05
2.89555e-08
4.46323e-05
3.02158e-08
4.62947e-05
3.07392e-08
4.80191e-05
3.05553e-08
4.98075e-05
2.96719e-08
5.16622e-05
2.81728e-08
5.35855e-05
2.61471e-08
5.558e-05
2.36861e-08
5.76483e-05
2.08358e-08
5.97931e-05
1.75347e-08
6.20173e-05
1.3821e-08
6.43238e-05
9.6842e-09
6.67154e-05
6.91954e-05
4.86795e-09
3.45779e-05
1.01965e-08
3.58507e-05
1.63379e-08
3.71779e-05
2.20982e-08
3.85584e-05
2.63654e-08
3.9993e-05
2.94689e-08
4.14821e-05
3.18203e-08
4.30273e-05
3.35318e-08
4.46305e-05
3.45408e-08
4.62937e-05
3.4756e-08
4.80189e-05
3.41962e-08
4.98081e-05
3.29921e-08
5.16634e-05
3.1177e-08
5.35874e-05
2.87836e-08
5.55824e-05
2.58848e-08
5.76512e-05
2.25344e-08
5.97965e-05
1.88253e-08
6.2021e-05
1.48262e-08
6.43278e-05
1.04783e-08
6.67197e-05
6.92001e-05
9.75085e-10
3.45758e-05
1.0239e-08
3.58415e-05
2.01833e-08
3.7168e-05
2.71251e-08
3.85515e-05
3.18402e-08
3.99883e-05
3.49129e-08
4.14791e-05
3.69571e-08
4.30253e-05
3.82036e-08
4.46293e-05
3.86619e-08
4.62933e-05
3.84188e-08
4.80192e-05
3.74659e-08
4.9809e-05
3.57737e-08
5.16651e-05
3.35345e-08
5.35896e-05
3.08944e-08
5.55851e-05
2.78324e-08
5.76543e-05
2.43553e-08
5.98e-05
2.04644e-08
6.20249e-05
1.6097e-08
6.43321e-05
1.12947e-08
6.67245e-05
6.92052e-05
6.95207e-09
3.45723e-05
1.81372e-08
3.58303e-05
2.64117e-08
3.71597e-05
3.31997e-08
3.85447e-05
3.77447e-08
3.99837e-05
4.06186e-08
4.14762e-05
4.24073e-08
4.30235e-05
4.31818e-08
4.46285e-05
4.3067e-08
4.62934e-05
4.22413e-08
4.802e-05
4.07019e-08
4.98106e-05
3.87219e-08
5.16671e-05
3.62555e-08
5.35921e-05
3.32246e-08
5.55881e-05
2.97185e-08
5.76578e-05
2.58137e-08
5.98039e-05
2.15949e-08
6.20292e-05
1.7075e-08
6.43366e-05
1.21296e-08
6.67295e-05
6.92106e-05
7.01688e-09
3.45661e-05
2.11211e-08
3.58162e-05
3.2125e-08
3.71487e-05
3.85176e-08
3.85383e-05
4.26517e-08
3.99796e-05
4.59651e-08
4.14729e-05
4.75905e-08
4.30219e-05
4.78559e-08
4.46283e-05
4.71731e-08
4.62941e-05
4.57015e-08
4.80215e-05
4.38725e-08
4.98124e-05
4.15228e-08
5.16694e-05
3.86781e-08
5.35949e-05
3.54081e-08
5.55914e-05
3.16944e-08
5.76615e-05
2.75329e-08
5.9808e-05
2.29595e-08
6.20337e-05
1.80103e-08
6.43416e-05
1.26828e-08
6.67348e-05
6.92163e-05
1.79871e-08
3.4555e-05
3.20851e-08
3.58021e-05
4.0073e-08
3.71407e-05
4.45635e-08
3.85338e-05
4.86866e-08
3.99755e-05
5.12243e-08
4.14703e-05
5.23371e-08
4.30208e-05
5.20973e-08
4.46285e-05
5.09201e-08
4.62953e-05
4.92034e-08
4.80232e-05
4.69401e-08
4.98147e-05
4.42129e-08
5.16722e-05
4.1013e-08
5.35981e-05
3.73318e-08
5.5595e-05
3.32455e-08
5.76656e-05
2.88055e-08
5.98125e-05
2.40327e-08
6.20385e-05
1.89909e-08
6.43466e-05
1.35309e-08
6.67403e-05
6.92222e-05
2.29589e-08
3.45397e-05
3.89554e-08
3.57861e-05
4.62563e-08
3.71334e-05
5.12357e-08
3.85288e-05
5.47311e-08
3.9972e-05
5.65137e-08
4.14685e-05
5.68783e-08
4.30204e-05
5.62354e-08
4.46291e-05
5.47909e-08
4.62967e-05
5.26532e-08
4.80253e-05
4.99516e-08
4.98174e-05
4.67948e-08
5.16753e-05
4.32268e-08
5.36017e-05
3.9298e-08
5.5599e-05
3.49752e-08
5.76699e-05
3.02307e-08
5.98172e-05
2.50776e-08
6.20437e-05
1.96288e-08
6.43521e-05
1.39146e-08
6.6746e-05
6.92284e-05
3.92153e-08
3.45174e-05
5.19714e-08
3.57733e-05
5.51747e-08
3.71302e-05
5.89318e-08
3.85251e-05
6.10787e-08
3.99698e-05
6.17925e-08
4.14678e-05
6.14209e-08
4.30208e-05
6.01938e-08
4.46304e-05
5.82165e-08
4.62987e-05
5.56561e-08
4.80279e-05
5.25914e-08
4.98204e-05
4.90698e-08
5.16788e-05
4.51464e-08
5.36056e-05
4.08398e-08
5.56033e-05
3.62165e-08
5.76745e-05
3.13125e-08
5.98221e-05
2.60739e-08
6.20489e-05
2.05288e-08
6.43576e-05
1.46843e-08
6.67518e-05
6.92348e-05
5.08761e-08
3.44886e-05
5.86424e-08
3.57656e-05
6.42553e-08
3.71246e-05
6.67986e-08
3.85225e-05
6.75585e-08
3.99691e-05
6.72004e-08
4.14682e-05
6.60084e-08
4.3022e-05
6.4145e-08
4.46322e-05
6.17152e-08
4.63011e-05
5.87148e-08
4.80309e-05
5.52196e-08
4.98239e-05
5.13345e-08
5.16827e-05
4.70974e-08
5.36098e-05
4.25323e-08
5.56079e-05
3.76248e-08
5.76794e-05
3.23723e-08
5.98274e-05
2.67908e-08
6.20545e-05
2.09028e-08
6.43635e-05
1.49314e-08
6.67578e-05
6.92412e-05
7.27229e-08
3.44513e-05
7.32293e-08
3.57651e-05
7.44685e-08
3.71234e-05
7.48494e-08
3.85221e-05
7.39981e-08
3.99699e-05
7.23569e-08
4.14698e-05
7.01993e-08
4.30241e-05
6.76156e-08
4.46348e-05
6.45844e-08
4.63041e-05
6.11561e-08
4.80343e-05
5.73461e-08
4.98277e-05
5.31404e-08
5.16869e-05
4.85978e-08
5.36144e-05
4.3756e-08
5.56127e-05
3.8651e-08
5.76845e-05
3.33048e-08
5.98327e-05
2.7692e-08
6.20601e-05
2.16571e-08
6.43696e-05
1.55431e-08
6.67639e-05
6.9248e-05
8.9571e-08
8.65345e-08
8.56096e-08
8.39244e-08
8.14652e-08
7.85553e-08
7.53724e-08
7.19352e-08
6.82606e-08
6.42749e-08
5.99552e-08
5.53721e-08
5.05194e-08
4.53849e-08
3.99659e-08
3.42578e-08
2.83016e-08
2.2127e-08
1.55783e-08
)
;

boundaryField
{
    movingWall
    {
        type            calculated;
        value           nonuniform List<scalar> 
60
(
1.29428e-08
1.44256e-08
1.61686e-08
1.80867e-08
2.00953e-08
2.23751e-08
2.47281e-08
2.72256e-08
3.01112e-08
3.26702e-08
3.60556e-08
3.87504e-08
4.25204e-08
4.53435e-08
4.96575e-08
5.22045e-08
5.77655e-08
5.95962e-08
6.65278e-08
6.8497e-08
7.54269e-08
7.88652e-08
8.58323e-08
8.85875e-08
9.9619e-08
9.81953e-08
1.12945e-07
1.1108e-07
1.26101e-07
1.25574e-07
1.41389e-07
1.38e-07
1.57928e-07
1.4778e-07
1.70052e-07
1.57192e-07
1.79024e-07
1.49847e-07
1.75835e-07
1.27216e-07
2.93796e-10
7.81708e-10
1.39377e-09
2.04281e-09
2.50694e-09
3.1229e-09
3.6112e-09
4.2543e-09
4.69254e-09
5.24417e-09
5.7681e-09
6.18538e-09
6.75608e-09
7.02596e-09
7.58946e-09
7.78152e-09
8.28695e-09
8.43372e-09
8.8257e-09
8.96506e-09
)
;
    }
    leftSide
    {
        type            calculated;
        value           nonuniform List<scalar> 
20
(
-3.4585e-05
-3.587e-05
-3.72028e-05
-3.85851e-05
-4.00187e-05
-4.15056e-05
-4.30477e-05
-4.46472e-05
-4.6306e-05
-4.80265e-05
-4.9811e-05
-5.16617e-05
-5.35812e-05
-5.5572e-05
-5.76368e-05
-5.97783e-05
-6.19993e-05
-6.43029e-05
-6.66921e-05
-6.91701e-05
)
;
    }
    rightSide
    {
        type            calculated;
        value           nonuniform List<scalar> 
20
(
1.50467e-05
3.13225e-05
3.71235e-05
3.94577e-05
4.10542e-05
4.25792e-05
4.41455e-05
4.57686e-05
4.74516e-05
4.91971e-05
5.10074e-05
5.28853e-05
5.48332e-05
5.6854e-05
5.89506e-05
6.11261e-05
6.33834e-05
6.57269e-05
6.81586e-05
7.06819e-05
)
;
    }
    bottomWall
    {
        type            calculated;
        value           uniform 0;
    }
    bottomWall2
    {