/*--------------------------------*- C++ -*----------------------------------*\
  =========                 |
  \\      /  F ield         | OpenFOAM: The Open Source CFD Toolbox
   \\    /   O peration     | Website:  https://openfoam.org
    \\  /    A nd           | Version:  10
     \\/     M anipulation  |
\*---------------------------------------------------------------------------*/
FoamFile
{
    format      ascii;
    class       volVectorField;
    location    "0.7";
    object      U;
}
// * * * * * * * * * * * * * * * * * * * * * * * * * * * * * * * * * * * * * //

dimensions      [0 1 -1 0 0 0 0];

internalField   nonuniform List<vector> 
1200
(
(0 0.00216633 0.992414)
(0 0.00383273 0.997581)
(0 0.00320938 0.998188)
(0 0.00294143 0.998644)
(0 0.00278517 0.99904)
(0 0.00264573 0.999389)
(0 0.00250686 0.999691)
(0 0.00237054 0.999955)
(0 0.00223455 1.00018)
(0 0.00209411 1.00038)
(0 0.00195288 1.00056)
(0 0.00180487 1.00071)
(0 0.00164929 1.00084)
(0 0.00148918 1.00095)
(0 0.00132337 1.00105)
(0 0.00115144 1.00113)
(0 0.000971963 1.0012)
(0 0.000783755 1.00126)
(0 0.000624669 1.0013)
(0 0.000285882 1.00135)
(0 0.00299753 0.984876)
(0 0.00504762 0.997541)
(0 0.00389736 0.998125)
(0 0.00350652 0.998587)
(0 0.00326777 0.998993)
(0 0.00305299 0.999349)
(0 0.00285749 0.99966)
(0 0.00267207 0.999931)
(0 0.00249158 1.00017)
(0 0.00231949 1.00037)
(0 0.00214647 1.00055)
(0 0.00197219 1.0007)
(0 0.0017976 1.00084)
(0 0.00161676 1.00096)
(0 0.00142977 1.00106)
(0 0.00123737 1.00114)
(0 0.00103799 1.00121)
(0 0.000832886 1.00127)
(0 0.000666926 1.00131)
(0 0.000307269 1.00136)
(0 0.0036191 0.977735)
(0 0.00595644 0.998062)
(0 0.00447134 0.9986)
(0 0.00402357 0.998979)
(0 0.00371599 0.999344)
(0 0.00344237 0.999679)
(0 0.00318839 0.999977)
(0 0.00295371 1.00024)
(0 0.00273896 1.00047)
(0 0.00253231 1.00067)
(0 0.00233243 1.00085)
(0 0.00213646 1.001)
(0 0.00193867 1.00113)
(0 0.00174058 1.00125)
(0 0.00154057 1.00135)
(0 0.00133447 1.00143)
(0 0.00112116 1.0015)
(0 0.000899635 1.00156)
(0 0.000718965 1.00161)
(0 0.000332042 1.00166)
(0 0.00394758 0.970385)
(0 0.00647515 0.998426)
(0 0.00490383 0.998952)
(0 0.00449754 0.999243)
(0 0.00416779 0.999547)
(0 0.00384161 0.999834)
(0 0.0035401 1.0001)
(0 0.00326509 1.00034)
(0 0.00300662 1.00055)
(0 0.00276665 1.00074)
(0 0.00253771 1.00091)
(0 0.00231241 1.00106)
(0 0.00209221 1.00119)
(0 0.00187192 1.0013)
(0 0.00164913 1.0014)
(0 0.00142438 1.00148)
(0 0.00119455 1.00154)
(0 0.00095787 1.0016)
(0 0.000770916 1.00164)
(0 0.000358089 1.00169)
(0 0.00405309 0.962828)
(0 0.006623 0.999147)
(0 0.00509709 0.999786)
(0 0.0048204 0.999956)
(0 0.00449537 1.00016)
(0 0.00415296 1.00038)
(0 0.00382685 1.00059)
(0 0.00352053 1.00079)
(0 0.0032407 1.00098)
(0 0.0029774 1.00114)
(0 0.00272286 1.0013)
(0 0.00247935 1.00143)
(0 0.00223916 1.00155)
(0 0.00200088 1.00165)
(0 0.00176412 1.00174)
(0 0.0015237 1.00182)
(0 0.00127704 1.00189)
(0 0.00102287 1.00194)
(0 0.000822256 1.00198)
(0 0.000383562 1.00203)
(0 0.00404902 0.954648)
(0 0.00659186 0.999416)
(0 0.00516816 1.0003)
(0 0.00504372 1.0004)
(0 0.00476378 1.00054)
(0 0.00442407 1.00068)
(0 0.00408712 1.00084)
(0 0.00377088 1.001)
(0 0.00347014 1.00115)
(0 0.00318287 1.00129)
(0 0.00291142 1.00142)
(0 0.00264521 1.00154)
(0 0.00238438 1.00165)
(0 0.0021279 1.00175)
(0 0.00187178 1.00183)
(0 0.00161452 1.0019)
(0 0.00135423 1.00196)
(0 0.00108616 1.00201)
(0 0.000878881 1.00205)
(0 0.000411714 1.00209)
(0 0.00401251 0.946101)
(0 0.00649358 0.999854)
(0 0.00513 1.00117)
(0 0.00514806 1.00121)
(0 0.00490425 1.00127)
(0 0.00458736 1.00135)
(0 0.00426712 1.00145)
(0 0.00395183 1.00155)
(0 0.00364838 1.00167)
(0 0.0033592 1.00178)
(0 0.00307269 1.00189)
(0 0.00279488 1.00199)
(0 0.00252251 1.00208)
(0 0.00225154 1.00216)
(0 0.00198087 1.00223)
(0 0.00170911 1.0023)
(0 0.00143132 1.00235)
(0 0.00114544 1.0024)
(0 0.000928867 1.00244)
(0 0.000438674 1.00248)
(0 0.00400246 0.936914)
(0 0.00642464 0.999706)
(0 0.00510099 1.00155)
(0 0.00520595 1.00161)
(0 0.00499764 1.00165)
(0 0.00470826 1.00169)
(0 0.004404 1.00175)
(0 0.00410254 1.00182)
(0 0.00380808 1.0019)
(0 0.00351002 1.00198)
(0 0.00322072 1.00207)
(0 0.0029338 1.00215)
(0 0.00264739 1.00222)
(0 0.00236421 1.00229)
(0 0.00208312 1.00235)
(0 0.00179838 1.00241)
(0 0.00150877 1.00245)
(0 0.00121039 1.0025)
(0 0.000985058 1.00253)
(0 0.000465719 1.00257)
(0 0.00401387 0.927441)
(0 0.00643389 0.999739)
(0 0.00510769 1.00224)
(0 0.00525554 1.00231)
(0 0.00504855 1.00233)
(0 0.00477016 1.00235)
(0 0.00448764 1.00238)
(0 0.00420667 1.00242)
(0 0.00391685 1.00247)
(0 0.00363294 1.00253)
(0 0.00334371 1.00259)
(0 0.00305156 1.00265)
(0 0.00276065 1.00271)
(0 0.00246956 1.00277)
(0 0.00217446 1.00282)
(0 0.00187925 1.00287)
(0 0.00157891 1.00291)
(0 0.00126589 1.00294)
(0 0.00103722 1.00297)
(0 0.000496569 1.00301)
(0 0.00404831 0.917397)
(0 0.00646628 0.999188)
(0 0.00515475 1.00245)
(0 0.00531495 1.00259)
(0 0.00509442 1.00263)
(0 0.00482411 1.00265)
(0 0.00455815 1.00267)
(0 0.00428603 1.00269)
(0 0.00401856 1.00273)
(0 0.00373553 1.00277)
(0 0.00344788 1.00281)
(0 0.00315909 1.00285)
(0 0.00286565 1.00289)
(0 0.0025663 1.00293)
(0 0.00226657 1.00297)
(0 0.00196129 1.00301)
(0 0.00164616 1.00304)
(0 0.00132218 1.00308)
(0 0.00108611 1.0031)
(0 0.000519544 1.00314)
(0 0.0040781 0.907157)
(0 0.00655157 0.998916)
(0 0.00525813 1.00302)
(0 0.0054097 1.00317)
(0 0.00515582 1.00321)
(0 0.00487397 1.00323)
(0 0.0046043 1.00326)
(0 0.00435023 1.00328)
(0 0.00408157 1.00331)
(0 0.00381035 1.00334)
(0 0.00353208 1.00337)
(0 0.00324152 1.0034)
(0 0.00294426 1.00343)
(0 0.00264657 1.00347)
(0 0.00234165 1.0035)
(0 0.00202965 1.00352)
(0 0.00171268 1.00355)
(0 0.00137622 1.00357)
(0 0.00113809 1.00359)
(0 0.000552879 1.00363)
(0 0.00410056 0.896342)
(0 0.00660793 0.998049)
(0 0.00536261 1.00315)
(0 0.00552538 1.0034)
(0 0.00524556 1.00345)
(0 0.00495094 1.00348)
(0 0.00469287 1.00351)
(0 0.00442744 1.00354)
(0 0.00416697 1.00356)
(0 0.00389775 1.00358)
(0 0.00361577 1.0036)
(0 0.00332812 1.00362)
(0 0.00303503 1.00364)
(0 0.00272824 1.00366)
(0 0.0024143 1.00368)
(0 0.0020983 1.0037)
(0 0.00176722 1.00372)
(0 0.00142209 1.00374)
(0 0.00118175 1.00375)
(0 0.000573041 1.00379)
(0 0.00410648 0.885378)
(0 0.00665815 0.997536)
(0 0.0054622 1.0037)
(0 0.00562532 1.00395)
(0 0.00531645 1.004)
(0 0.00501796 1.00404)
(0 0.00473844 1.00408)
(0 0.00448272 1.00411)
(0 0.00422151 1.00414)
(0 0.00394883 1.00417)
(0 0.00367168 1.00419)
(0 0.00338636 1.00421)
(0 0.00308878 1.00423)
(0 0.00278709 1.00424)
(0 0.00248112 1.00426)
(0 0.00215708 1.00427)
(0 0.00182517 1.00428)
(0 0.00147109 1.0043)
(0 0.00122894 1.00431)
(0 0.000606396 1.00433)
(0 0.00410121 0.873784)
(0 0.00670746 0.996376)
(0 0.00558198 1.00384)
(0 0.0057662 1.0042)
(0 0.005456 1.00425)
(0 0.0051404 1.00428)
(0 0.00487188 1.00432)
(0 0.00460113 1.00435)
(0 0.00432633 1.00438)
(0 0.00405324 1.0044)
(0 0.00376978 1.00442)
(0 0.0034732 1.00443)
(0 0.00317145 1.00444)
(0 0.00286216 1.00446)
(0 0.00253685 1.00446)
(0 0.00221261 1.00447)
(0 0.00187498 1.00448)
(0 0.00150952 1.00449)
(0 0.00126684 1.0045)
(0 0.000623741 1.00452)
(0 0.00408676 0.862059)
(0 0.00670188 0.995595)
(0 0.00562072 1.00442)
(0 0.00581873 1.00482)
(0 0.005487 1.00486)
(0 0.00518983 1.0049)
(0 0.00491278 1.00494)
(0 0.00464426 1.00497)
(0 0.00437834 1.00501)
(0 0.00409746 1.00503)
(0 0.00380836 1.00505)
(0 0.00352048 1.00507)
(0 0.0032244 1.00508)
(0 0.00291155 1.00509)
(0 0.00259861 1.0051)
(0 0.00226849 1.0051)
(0 0.00192078 1.00511)
(0 0.00155265 1.00511)
(0 0.00131426 1.00511)
(0 0.000658797 1.00513)
(0 0.0040661 0.849645)
(0 0.0067542 0.994113)
(0 0.00575447 1.00455)
(0 0.00595684 1.00508)
(0 0.00564391 1.00512)
(0 0.00533471 1.00514)
(0 0.00506071 1.00517)
(0 0.00479202 1.00521)
(0 0.00450912 1.00523)
(0 0.00422012 1.00525)
(0 0.00392742 1.00527)
(0 0.00361907 1.00529)
(0 0.0032983 1.0053)
(0 0.00298448 1.00531)
(0 0.00265544 1.00531)
(0 0.00231489 1.00531)
(0 0.0019693 1.00532)
(0 0.00158376 1.00533)
(0 0.00133601 1.00533)
(0 0.000668286 1.00536)
(0 0.00404607 0.837103)
(0 0.00673647 0.992982)
(0 0.00575736 1.00517)
(0 0.00597305 1.00582)
(0 0.00563476 1.00586)
(0 0.0053481 1.00588)
(0 0.00508839 1.00591)
(0 0.00481781 1.00593)
(0 0.00454076 1.00596)
(0 0.00425997 1.00598)
(0 0.00396443 1.00599)
(0 0.0036628 1.006)
(0 0.00336312 1.00601)
(0 0.00304006 1.00601)
(0 0.00270666 1.00601)
(0 0.00237587 1.00602)
(0 0.00202016 1.00601)
(0 0.00163394 1.00601)
(0 0.00140118 1.00601)
(0 0.00071322 1.00602)
(0 0.00401897 0.823804)
(0 0.0067762 0.991137)
(0 0.00589508 1.00525)
(0 0.00609483 1.00605)
(0 0.0057761 1.00609)
(0 0.00548791 1.00612)
(0 0.00522268 1.00614)
(0 0.00495519 1.00616)
(0 0.00467915 1.00618)
(0 0.00437664 1.0062)
(0 0.00406843 1.00621)
(0 0.00375917 1.00623)
(0 0.0034309 1.00623)
(0 0.0030996 1.00624)
(0 0.00277126 1.00625)
(0 0.00241297 1.00624)
(0 0.00204669 1.00625)
(0 0.00164727 1.00626)
(0 0.00139882 1.00626)
(0 0.000710081 1.00628)
(0 0.00399472 0.810395)
(0 0.00679077 0.989552)
(0 0.00591258 1.00586)
(0 0.00611629 1.00688)
(0 0.00577223 1.00695)
(0 0.00549342 1.00696)
(0 0.0052393 1.00698)
(0 0.00498311 1.00699)
(0 0.00469825 1.007)
(0 0.00441706 1.00701)
(0 0.00412698 1.00701)
(0 0.00381262 1.00701)
(0 0.00349244 1.00701)
(0 0.00317371 1.00702)
(0 0.0028256 1.007)
(0 0.00248271 1.007)
(0 0.00212979 1.007)
(0 0.0017176 1.00699)
(0 0.00147899 1.00699)
(0 0.000764762 1.00701)
(0 0.00396837 0.796126)
(0 0.00680007 0.987297)
(0 0.00603712 1.00593)
(0 0.00622358 1.00714)
(0 0.0058911 1.0072)
(0 0.00561233 1.00722)
(0 0.00536526 1.00723)
(0 0.00508579 1.00724)
(0 0.00480904 1.00726)
(0 0.00450926 1.00727)
(0 0.00419064 1.00728)
(0 0.003874 1.00728)
(0 0.00355841 1.00729)
(0 0.00320792 1.00728)
(0 0.00286419 1.00729)
(0 0.00251114 1.00729)
(0 0.00212578 1.00728)
(0 0.00171449 1.00728)
(0 0.00147736 1.00727)
(0 0.000759634 1.00728)
(0 0.00393086 0.781809)
(0 0.00684459 0.985154)
(0 0.00608247 1.00642)
(0 0.00625906 1.00797)
(0 0.00590125 1.00807)
(0 0.00563436 1.0081)
(0 0.00537203 1.0081)
(0 0.00512894 1.00812)
(0 0.00485339 1.00812)
(0 0.00455964 1.00812)
(0 0.00426195 1.00812)
(0 0.00395607 1.00813)
(0 0.00361632 1.00811)
(0 0.00329041 1.00811)
(0 0.00295371 1.0081)
(0 0.00258204 1.00809)
(0 0.00221894 1.00809)
(0 0.00178794 1.00809)
(0 0.00153683 1.00809)
(0 0.000807266 1.00811)
(0 0.00390687 0.766528)
(0 0.00684972 0.982447)
(0 0.00621411 1.00655)
(0 0.00638589 1.00833)
(0 0.00603668 1.00842)
(0 0.00573979 1.00842)
(0 0.00549751 1.00844)
(0 0.00521633 1.00844)
(0 0.00492246 1.00844)
(0 0.00462731 1.00844)
(0 0.00432023 1.00845)
(0 0.00398351 1.00843)
(0 0.00365971 1.00843)
(0 0.00332214 1.00843)
(0 0.00295142 1.00842)
(0 0.0026059 1.00841)
(0 0.00222924 1.0084)
(0 0.00179404 1.00839)
(0 0.00156203 1.00839)
(0 0.00081435 1.0084)
(0 0.00386212 0.75125)
(0 0.00686583 0.979641)
(0 0.00624085 1.00684)
(0 0.00639829 1.00913)
(0 0.006024 1.00931)
(0 0.00576396 1.00935)
(0 0.00549935 1.00936)
(0 0.00523588 1.00937)
(0 0.00497081 1.00937)
(0 0.00468164 1.00938)
(0 0.00436873 1.00936)
(0 0.00406623 1.00936)
(0 0.00374694 1.00935)
(0 0.00338722 1.00933)
(0 0.00305083 1.00933)
(0 0.00267863 1.00932)
(0 0.00228581 1.00931)
(0 0.00184684 1.00931)
(0 0.00160541 1.00929)
(0 0.000855028 1.0093)
(0 0.00381467 0.734906)
(0 0.00691782 0.976436)
(0 0.00641323 1.00701)
(0 0.00656601 1.00954)
(0 0.00621207 1.00967)
(0 0.00590832 1.00967)
(0 0.00563592 1.00968)
(0 0.00536113 1.00969)
(0 0.00505206 1.0097)
(0 0.00473428 1.00969)
(0 0.00442727 1.00969)
(0 0.00410696 1.00968)
(0 0.00374832 1.00966)
(0 0.00342347 1.00966)
(0 0.00306437 1.00964)
(0 0.00268474 1.00963)
(0 0.00231543 1.00963)
(0 0.00186245 1.00963)
(0 0.00161174 1.00963)
(0 0.000851908 1.00965)
(0 0.00379462 0.718624)
(0 0.00687124 0.972819)
(0 0.00639349 1.00713)
(0 0.00654304 1.01044)
(0 0.00616574 1.01072)
(0 0.00589236 1.01076)
(0 0.00565265 1.01077)
(0 0.00536873 1.01078)
(0 0.00508085 1.01078)
(0 0.00479135 1.01078)
(0 0.00448562 1.01077)
(0 0.00414251 1.01075)
(0 0.00383895 1.01074)
(0 0.00349547 1.01072)
(0 0.00312488 1.01068)
(0 0.00277938 1.01067)
(0 0.00239229 1.01064)
(0 0.00192766 1.01061)
(0 0.00170622 1.01059)
(0 0.000923861 1.01059)
(0 0.00371137 0.701116)
(0 0.00695762 0.969055)
(0 0.00659168 1.00717)
(0 0.00672058 1.01075)
(0 0.00635174 1.01095)
(0 0.00607494 1.01097)
(0 0.0057776 1.01099)
(0 0.0054855 1.01101)
(0 0.00518382 1.01102)
(0 0.00486209 1.01104)
(0 0.00450556 1.01103)
(0 0.0041915 1.01105)
(0 0.00383656 1.01104)
(0 0.00345554 1.01103)
(0 0.00311609 1.01104)
(0 0.0027325 1.01102)
(0 0.00233557 1.01101)
(0 0.00188872 1.01101)
(0 0.0016431 1.011)
(0 0.000878823 1.011)
(0 0.00368607 0.683822)
(0 0.00691538 0.964501)
(0 0.00658684 1.00719)
(0 0.00672069 1.01183)
(0 0.00637205 1.01224)
(0 0.00608354 1.01226)
(0 0.00583644 1.01226)
(0 0.00557205 1.01226)
(0 0.00527375 1.01224)
(0 0.00494463 1.01222)
(0 0.00465764 1.01221)
(0 0.00432336 1.01219)
(0 0.0039532 1.01215)
(0 0.00362927 1.01214)
(0 0.00325096 1.01211)
(0 0.00285937 1.01209)
(0 0.00248807 1.01207)
(0 0.00200244 1.01205)
(0 0.00177061 1.01204)
(0 0.000975482 1.01204)
(0 0.00362336 0.665214)
(0 0.00691835 0.960123)
(0 0.00669274 1.00711)
(0 0.00681919 1.01214)
(0 0.00642506 1.01248)
(0 0.00614017 1.01252)
(0 0.00587649 1.01254)
(0 0.00556668 1.01254)
(0 0.00523163 1.01255)
(0 0.00493448 1.01256)
(0 0.00459078 1.01256)
(0 0.00421739 1.01254)
(0 0.00390627 1.01255)
(0 0.00353934 1.01254)
(0 0.00315304 1.01252)
(0 0.00279945 1.01252)
(0 0.00239867 1.0125)
(0 0.00192278 1.01249)
(0 0.00169856 1.01248)
(0 0.000925744 1.01248)
(0 0.00354749 0.646885)
(0 0.00697137 0.954586)
(0 0.00682177 1.00688)
(0 0.0069215 1.0132)
(0 0.00655759 1.01379)
(0 0.00629799 1.01384)
(0 0.00601313 1.01383)
(0 0.005718 1.01382)
(0 0.00545221 1.01381)
(0 0.00512913 1.01379)
(0 0.00476849 1.01375)
(0 0.00446593 1.01375)
(0 0.00410158 1.01372)
(0 0.00370612 1.01368)
(0 0.00335691 1.01366)
(0 0.00296009 1.01363)
(0 0.00255633 1.0136)
(0 0.00206994 1.01359)
(0 0.0018298 1.01358)
(0 0.00101412 1.01358)
(0 0.0034871 0.627154)
(0 0.00691667 0.949385)
(0 0.00681483 1.00679)
(0 0.00691451 1.01374)
(0 0.00655429 1.0143)
(0 0.00621722 1.01431)
(0 0.00591494 1.01431)
(0 0.00563544 1.01431)
(0 0.00529689 1.0143)
(0 0.00493724 1.01427)
(0 0.0046499 1.01427)
(0 0.00431154 1.01424)
(0 0.0039247 1.0142)
(0 0.00359805 1.01419)
(0 0.00322266 1.01416)
(0 0.00282689 1.01413)
(0 0.00245557 1.01411)
(0 0.00197851 1.01409)
(0 0.00175257 1.01407)
(0 0.000974453 1.01407)
(0 0.0034233 0.607827)
(0 0.00687198 0.942885)
(0 0.00690302 1.0062)
(0 0.00704841 1.01472)
(0 0.00664912 1.01557)
(0 0.00637509 1.01564)
(0 0.00613867 1.01564)
(0 0.00582137 1.01563)
(0 0.00547399 1.01559)
(0 0.00518838 1.01558)
(0 0.00485994 1.01555)
(0 0.00446531 1.0155)
(0 0.00415216 1.01547)
(0 0.00378829 1.01542)
(0 0.00337754 1.01537)
(0 0.00300786 1.01534)
(0 0.00260877 1.0153)
(0 0.00208917 1.01527)
(0 0.00187308 1.01525)
(0 0.00105848 1.01524)
(0 0.00331092 0.587024)
(0 0.00692838 0.936549)
(0 0.00699752 1.00574)
(0 0.00701211 1.01518)
(0 0.00662515 1.01608)
(0 0.00633017 1.01613)
(0 0.00599088 1.01613)
(0 0.0056319 1.0161)
(0 0.00532915 1.01609)
(0 0.00500207 1.01608)
(0 0.00459019 1.01603)
(0 0.00428184 1.01602)
(0 0.0039364 1.01598)
(0 0.00353814 1.01593)
(0 0.00320302 1.0159)
(0 0.00283726 1.01587)
(0 0.0024541 1.01583)
(0 0.00199286 1.0158)
(0 0.00177169 1.01578)
(0 0.000996873 1.01578)
(0 0.00320929 0.566743)
(0 0.00682847 0.929272)
(0 0.00696211 1.00527)
(0 0.00709946 1.01655)
(0 0.00675754 1.01772)
(0 0.00644779 1.01779)
(0 0.00614457 1.01773)
(0 0.00587017 1.0177)
(0 0.00558197 1.01765)
(0 0.00517535 1.01756)
(0 0.00488023 1.01751)
(0 0.00454681 1.01746)
(0 0.00413259 1.01737)
(0 0.00377766 1.01731)
(0 0.00339938 1.01724)
(0 0.00299374 1.01717)
(0 0.00261276 1.01711)
(0 0.0021078 1.01705)
(0 0.0019088 1.017)
(0 0.00110028 1.01698)
(0 0.00313637 0.545323)
(0 0.00665808 0.921606)
(0 0.00689711 1.0041)
(0 0.00691482 1.01675)
(0 0.00647046 1.01811)
(0 0.00609969 1.01818)
(0 0.00578895 1.01818)
(0 0.00549493 1.01815)
(0 0.00505516 1.01809)
(0 0.00476693 1.01806)
(0 0.00445986 1.01802)
(0 0.00406394 1.01795)
(0 0.00373741 1.0179)
(0 0.00340709 1.01785)
(0 0.00303007 1.01779)
(0 0.0026748 1.01774)
(0 0.00233365 1.0177)
(0 0.00187301 1.01766)
(0 0.00169461 1.01763)
(0 0.000993406 1.0176)
(0 0.00282379 0.524362)
(0 0.00664713 0.913583)
(0 0.00694421 1.0035)
(0 0.00705059 1.01816)
(0 0.00665584 1.0198)
(0 0.00639156 1.01989)
(0 0.00617413 1.01982)
(0 0.0057397 1.0197)
(0 0.0054738 1.01962)
(0 0.00517288 1.01954)
(0 0.00476211 1.01941)
(0 0.00442078 1.01932)
(0 0.00408826 1.01923)
(0 0.00369349 1.01912)
(0 0.00331518 1.01903)
(0 0.0029513 1.01895)
(0 0.00257582 1.01887)
(0 0.00207388 1.01882)
(0 0.00188475 1.01877)
(0 0.00110321 1.01875)
(0 0.00271316 0.503518)
(0 0.00625928 0.905267)
(0 0.00655142 1.00234)
(0 0.00642713 1.01874)
(0 0.00599402 1.02066)
(0 0.00569731 1.02075)
(0 0.00520522 1.02063)
(0 0.00494259 1.02054)
(0 0.00464895 1.02044)
(0 0.00425916 1.0203)
(0 0.00395514 1.02018)
(0 0.00368291 1.02007)
(0 0.00335184 1.01994)
(0 0.00303966 1.01981)
(0 0.0027515 1.0197)
(0 0.00244268 1.01958)
(0 0.00215584 1.01948)
(0 0.00175298 1.0194)
(0 0.00162118 1.01933)
(0 0.000983103 1.01929)
(0 0.0022963 0.482737)
(0 0.00598684 0.8964)
(0 0.00624858 1.0013)
(0 0.00642667 1.02012)
(0 0.00614761 1.02245)
(0 0.00571763 1.02249)
(0 0.00554006 1.02235)
(0 0.00526768 1.02219)
(0 0.0048791 1.02199)
(0 0.00455847 1.02181)
(0 0.00426483 1.02164)
(0 0.00391919 1.02146)
(0 0.00357691 1.02128)
(0 0.00325186 1.02111)
(0 0.00291023 1.02095)
(0 0.00258844 1.0208)
(0 0.00228211 1.02066)
(0 0.00183419 1.02054)
(0 0.00174113 1.02045)
(0 0.00107967 1.02038)
(0 0.00200675 0.464696)
(0 0.0050542 0.888283)
(0 0.00535866 0.999645)
(0 0.00521093 1.02013)
(0 0.00458349 1.0227)
(0 0.00437164 1.02285)
(0 0.00410092 1.02273)
(0 0.00374066 1.02255)
(0 0.00346096 1.02238)
(0 0.00322867 1.02221)
(0 0.00297275 1.02203)
(0 0.00271737 1.02185)
(0 0.00249093 1.02168)
(0 0.00226261 1.02151)
(0 0.00203716 1.02136)
(0 0.00182049 1.02121)
(0 0.00163694 1.02108)
(0 0.00132893 1.02097)
(0 0.00130627 1.02088)
(0 0.000871239 1.02082)
(0 0.00101174 0.446253)
(0 0.00504608 0.88042)
(0 0.00529843 0.999386)
(0 0.00520521 1.02218)
(0 0.00499559 1.02506)
(0 0.00475203 1.02505)
(0 0.00442219 1.02471)
(0 0.00411821 1.02437)
(0 0.00384625 1.02404)
(0 0.00356227 1.02372)
(0 0.00327681 1.02341)
(0 0.00301274 1.02311)
(0 0.00275257 1.02284)
(0 0.00249229 1.02257)
(0 0.00224636 1.02233)
(0 0.00201609 1.02212)
(0 0.00180292 1.02193)
(0 0.0014593 1.02177)
(0 0.00147626 1.02164)
(0 0.000985603 1.02155)
(0 -0.000200697 0.435)
(0 0.00195341 0.873062)
(0 0.00147597 0.99768)
(0 0.00171255 1.02242)
(0 0.00150609 1.02568)
(0 0.00141178 1.02567)
(0 0.00130704 1.0253)
(0 0.00122396 1.02492)
(0 0.00115096 1.02454)
(0 0.00108121 1.02417)
(0 0.00102024 1.02382)
(0 0.000969788 1.02348)
(0 0.000921941 1.02316)
(0 0.000878959 1.02286)
(0 0.000839712 1.02259)
(0 0.000800323 1.02234)
(0 0.000815674 1.02211)
(0 0.000673931 1.02193)
(0 0.000810119 1.02178)
(0 0.000684633 1.02165)
(0 4.87705e-05 0.995505)
(0 5.44556e-05 0.999712)
(0 2.10363e-05 1.00007)
(0 1.88104e-05 1.00008)
(0 1.42768e-05 1.00008)
(0 1.10629e-05 1.00008)
(0 1.15571e-05 1.00008)
(0 1.26528e-05 1.00008)
(0 1.39457e-05 1.00008)
(0 1.64364e-05 1.00009)
(0 1.8406e-05 1.00009)
(0 2.06683e-05 1.00009)
(0 2.20623e-05 1.00009)
(0 2.1374e-05 1.00009)
(0 2.08118e-05 1.00009)
(0 1.9987e-05 1.00009)
(0 1.87705e-05 1.00008)
(0 1.70954e-05 1.00008)
(0 1.34155e-05 1.00008)
(0 5.47073e-06 1.00008)
(0 -0.000109291 1.0044)
(0 -0.000129229 1.00023)
(0 -1.75841e-05 0.999935)
(0 1.81568e-05 0.999921)
(0 2.20663e-05 0.999917)
(0 3.04987e-05 0.999915)
(0 3.79832e-05 0.999914)
(0 4.5962e-05 0.999914)
(0 5.57468e-05 0.999916)
(0 6.20836e-05 0.999916)
(0 6.67512e-05 0.999918)
(0 6.9822e-05 0.99992)
(0 7.02214e-05 0.999922)
(0 7.08592e-05 0.999924)
(0 6.74381e-05 0.999925)
(0 6.0407e-05 0.999927)
(0 5.17588e-05 0.99993)
(0 4.12019e-05 0.999931)
(0 3.09655e-05 0.999932)
(0 1.31472e-05 0.999933)
(0 2.16148e-05 0.995664)
(0 1.99632e-05 0.999744)
(0 8.77198e-06 1.00006)
(0 2.04759e-05 1.00005)
(0 3.23362e-05 1.00005)
(0 4.4104e-05 1.00005)
(0 5.61637e-05 1.00005)
(0 7.06796e-05 1.00006)
(0 8.28359e-05 1.00006)
(0 9.55098e-05 1.00007)
(0 0.000107603 1.00008)
(0 0.000113421 1.00008)
(0 0.00011665 1.00009)
(0 0.000115334 1.00009)
(0 0.000110813 1.0001)
(0 0.000104394 1.0001)
(0 9.29338e-05 1.0001)
(0 7.74004e-05 1.0001)
(0 5.75741e-05 1.00011)
(0 2.32689e-05 1.00011)
(0 -8.55522e-05 1.00409)
(0 -9.35089e-05 1.00011)
(0 -4.18862e-06 0.999879)
(0 2.67646e-05 0.999868)
(0 5.04028e-05 0.999866)
(0 7.31316e-05 0.99987)
(0 9.71487e-05 0.999877)
(0 0.000118026 0.999886)
(0 0.000136799 0.999898)
(0 0.000152252 0.999911)
(0 0.000161297 0.999923)
(0 0.000168875 0.999935)
(0 0.000171014 0.999945)
(0 0.0001664 0.999955)
(0 0.000157167 0.999966)
(0 0.000142132 0.999973)
(0 0.000124411 0.999978)
(0 0.000104664 0.999981)
(0 8.14449e-05 0.999983)
(0 3.46286e-05 0.999987)
(0 4.82305e-05 0.995769)
(0 6.35263e-05 0.999699)
(0 1.8829e-05 0.999975)
(0 2.41063e-05 0.999972)
(0 5.89712e-05 0.999972)
(0 9.46185e-05 0.999981)
(0 0.000123602 0.999995)
(0 0.000152119 1.00001)
(0 0.00017835 1.00003)
(0 0.000198344 1.00005)
(0 0.000214399 1.00007)
(0 0.000222229 1.00009)
(0 0.000223567 1.00011)
(0 0.000220452 1.00012)
(0 0.000209184 1.00014)
(0 0.000191023 1.00015)
(0 0.000166528 1.00016)
(0 0.000136592 1.00017)
(0 0.000103803 1.00017)
(0 4.37379e-05 1.00018)
(0 -4.29963e-05 1.00376)
(0 -2.74368e-05 0.99994)
(0 2.87821e-05 0.999752)
(0 4.8444e-05 0.999758)
(0 9.77334e-05 0.999772)
(0 0.00014251 0.999789)
(0 0.000185371 0.999813)
(0 0.00022118 0.999841)
(0 0.000247684 0.99987)
(0 0.000269306 0.999902)
(0 0.000281627 0.99993)
(0 0.000287002 0.999958)
(0 0.000286262 0.999983)
(0 0.0002756 1)
(0 0.000258828 1.00002)
(0 0.000235253 1.00004)
(0 0.000204343 1.00005)
(0 0.000169601 1.00006)
(0 0.000131695 1.00007)
(0 5.62011e-05 1.00008)
(0 7.66669e-05 0.995825)
(0 0.000119356 0.999589)
(0 6.60754e-05 0.999824)
(0 7.72064e-05 0.999841)
(0 0.000127806 0.999862)
(0 0.000183564 0.999891)
(0 0.000234033 0.999926)
(0 0.00027606 0.999963)
(0 0.00031168 1)
(0 0.000335861 1.00004)
(0 0.000350963 1.00008)
(0 0.000357011 1.00012)
(0 0.000351 1.00015)
(0 0.000338332 1.00017)
(0 0.000317255 1.0002)
(0 0.000286898 1.00022)
(0 0.000249475 1.00023)
(0 0.000204658 1.00025)
(0 0.000156882 1.00026)
(0 6.72184e-05 1.00027)
(0 -2.06784e-05 1.00341)
(0 1.56634e-05 0.999725)
(0 8.77919e-05 0.999575)
(0 0.00012805 0.9996)
(0 0.000197165 0.999642)
(0 0.000261047 0.999688)
(0 0.00031891 0.999738)
(0 0.000366705 0.999791)
(0 0.000398673 0.999845)
(0 0.000420065 0.999898)
(0 0.000431853 0.999949)
(0 0.000431465 0.999993)
(0 0.000422633 1.00003)
(0 0.000401908 1.00007)
(0 0.000371235 1.0001)
(0 0.000334483 1.00013)
(0 0.000290439 1.00015)
(0 0.000241578 1.00017)
(0 0.000189467 1.00018)
(0 8.17821e-05 1.00019)
(0 8.14888e-05 0.995828)
(0 0.000148296 0.999427)
(0 0.000138051 0.999624)
(0 0.000193504 0.999662)
(0 0.000269997 0.999715)
(0 0.00033931 0.999776)
(0 0.000401897 0.999841)
(0 0.000450997 0.999905)
(0 0.00048909 0.999969)
(0 0.000512826 1.00003)
(0 0.000520053 1.00009)
(0 0.000516705 1.00014)
(0 0.000501049 1.00019)
(0 0.000475428 1.00023)
(0 0.000440068 1.00027)
(0 0.000392553 1.0003)
(0 0.000336732 1.00033)
(0 0.000274971 1.00035)
(0 0.00021369 1.00037)
(0 9.33989e-05 1.00039)
(0 -2.3337e-05 1.00301)
(0 3.33187e-05 0.999468)
(0 0.000171071 0.999363)
(0 0.000274442 0.999417)
(0 0.000373397 0.999495)
(0 0.000449489 0.99958)
(0 0.000510835 0.999664)
(0 0.000559795 0.999748)
(0 0.000592239 0.999828)
(0 0.000608551 0.999903)
(0 0.000613619 0.999974)
(0 0.000602761 1.00004)
(0 0.000579258 1.00009)
(0 0.000544918 1.00014)
(0 0.000499862 1.00019)
(0 0.000447538 1.00022)
(0 0.000386787 1.00025)
(0 0.000318727 1.00028)
(0 0.000248916 1.0003)
(0 0.000108099 1.00032)
(0 7.01947e-05 0.995749)
(0 0.000169853 0.999207)
(0 0.0002526 0.999391)
(0 0.000384186 0.999462)
(0 0.000496134 0.999552)
(0 0.000572228 0.999652)
(0 0.000633228 0.999754)
(0 0.000678076 0.999852)
(0 0.000707127 0.999945)
(0 0.000721468 1.00003)
(0 0.000716637 1.00011)
(0 0.000698831 1.00019)
(0 0.000668806 1.00025)
(0 0.000625339 1.00031)
(0 0.000571522 1.00036)
(0 0.000506467 1.0004)
(0 0.000432769 1.00044)
(0 0.00035388 1.00047)
(0 0.000278211 1.00049)
(0 0.00012312 1.00051)
(0 -2.26216e-05 1.00254)
(0 8.39198e-05 0.999162)
(0 0.000321852 0.99914)
(0 0.000501341 0.999241)
(0 0.00063025 0.999357)
(0 0.000713575 0.999479)
(0 0.000769958 0.9996)
(0 0.000807704 0.999716)
(0 0.000829411 0.999826)
(0 0.000832357 0.999925)
(0 0.000822075 1.00002)
(0 0.000795698 1.0001)
(0 0.000753663 1.00017)
(0 0.000701664 1.00023)
(0 0.00063939 1.00029)
(0 0.000568156 1.00033)
(0 0.000488258 1.00037)
(0 0.000399745 1.0004)
(0 0.000312244 1.00043)
(0 0.000136796 1.00046)
(0 8.26983e-05 0.995572)
(0 0.00026924 0.998932)
(0 0.000470667 0.999155)
(0 0.000660746 0.99928)
(0 0.000794141 0.999413)
(0 0.000871447 0.999551)
(0 0.000922909 0.999688)
(0 0.000954307 0.99982)
(0 0.000964276 0.999943)
(0 0.000958873 1.00006)
(0 0.000935854 1.00016)
(0 0.000898354 1.00025)
(0 0.000849439 1.00033)
(0 0.000785957 1.0004)
(0 0.00071112 1.00046)
(0 0.000626945 1.00052)
(0 0.000534711 1.00056)
(0 0.00043753 1.0006)
(0 0.000346597 1.00062)
(0 0.000154694 1.00065)
(0 3.03733e-05 1.00198)
(0 0.000271667 0.998814)
(0 0.00061665 0.998917)
(0 0.000828888 0.999087)
(0 0.000961618 0.99925)
(0 0.00103859 0.999409)
(0 0.00108319 0.999563)
(0 0.00110252 0.999709)
(0 0.00110407 0.999846)
(0 0.00108573 0.999969)
(0 0.00105169 1.00008)
(0 0.00100386 1.00018)
(0 0.000941245 1.00026)
(0 0.000869232 1.00034)
(0 0.000787068 1.0004)
(0 0.00069387 1.00046)
(0 0.000591638 1.00051)
(0 0.000481218 1.00055)
(0 0.00037687 1.00058)
(0 0.000166774 1.00061)
(0 0.000190178 0.995264)
(0 0.00056561 0.998617)
(0 0.000857493 0.998923)
(0 0.00104297 0.999121)
(0 0.0011602 0.999306)
(0 0.00122284 0.999484)
(0 0.001256 0.999656)
(0 0.00126604 0.999819)
(0 0.00125079 0.999967)
(0 0.00121868 1.0001)
(0 0.00117167 1.00023)
(0 0.00111006 1.00033)
(0 0.00103833 1.00043)
(0 0.00095381 1.00051)
(0 0.000857972 1.00058)
(0 0.000753855 1.00065)
(0 0.000641526 1.0007)
(0 0.000523594 1.00074)
(0 0.00041577 1.00077)
(0 0.000186603 1.0008)
(0 0.000227911 1.0013)
(0 0.000722383 0.998438)
(0 0.00110429 0.998693)
(0 0.00127151 0.998946)
(0 0.00136566 0.999164)
(0 0.00141598 0.999366)
(0 0.00143718 0.999554)
(0 0.00142996 0.999728)
(0 0.00140341 0.999888)
(0 0.00135816 1.00003)
(0 0.00129601 1.00016)
(0 0.00122232 1.00027)
(0 0.00113621 1.00038)
(0 0.00104126 1.00046)
(0 0.000937403 1.00054)
(0 0.000822033 1.0006)
(0 0.000696942 1.00066)
(0 0.00056426 1.00071)
(0 0.000443845 1.00074)
(0 0.000198374 1.00078)
(0 0.000495762 0.994811)
(0 0.0011814 0.998276)
(0 0.00143902 0.998688)
(0 0.00153981 0.998969)
(0 0.00159866 0.999217)
(0 0.00162396 0.999445)
(0 0.00162322 0.999653)
(0 0.00160085 0.999844)
(0 0.00155492 1.00002)
(0 0.00149247 1.00017)
(0 0.00141872 1.00031)
(0 0.00133136 1.00043)
(0 0.00123379 1.00054)
(0 0.00112559 1.00064)
(0 0.00100748 1.00072)
(0 0.000882402 1.00079)
(0 0.00074952 1.00084)
(0 0.000609917 1.00089)
(0 0.000484937 1.00092)
(0 0.000218848 1.00096)
(0 0.000674631 1.00049)
(0 0.00154222 0.998041)
(0 0.00178436 0.998454)
(0 0.00183055 0.998792)
(0 0.00185086 0.99908)
(0 0.0018466 0.999335)
(0 0.00182391 0.999563)
(0 0.00177841 0.999765)
(0 0.00171626 0.999947)
(0 0.00163967 1.00011)
(0 0.00154782 1.00026)
(0 0.00144695 1.00038)
(0 0.00133648 1.0005)
(0 0.00121672 1.0006)
(0 0.00108822 1.00068)
(0 0.000949069 1.00076)
(0 0.000800831 1.00082)
(0 0.000646215 1.00087)
(0 0.000511321 1.00091)
(0 0.000230905 1.00095)
(0 0.00109497 0.994212)
(0 0.00220094 0.997908)
(0 0.00219927 0.998429)
(0 0.00215106 0.998797)
(0 0.0021213 0.99912)
(0 0.00207992 0.999407)
(0 0.0020234 0.999658)
(0 0.00195467 0.999881)
(0 0.00187151 1.00008)
(0 0.00177535 1.00025)
(0 0.0016714 1.00041)
(0 0.00155654 1.00054)
(0 0.00143253 1.00066)
(0 0.00130052 1.00077)
(0 0.00115984 1.00086)
(0 0.0010119 1.00094)
(0 0.000856154 1.001)
(0 0.000693055 1.00105)
(0 0.000551359 1.00109)
(0 0.000250435 1.00113)
(0 0.00144892 0.999549)
(0 0.00278673 0.997606)
(0 0.00263185 0.998176)
(0 0.00250156 0.998606)
(0 0.00242084 0.998971)
(0 0.00233555 0.999288)
(0 0.00224649 0.999565)
(0 0.00214784 0.999806)
(0 0.00204129 1.00002)
(0 0.00192831 1.0002)
(0 0.00180432 1.00037)
(0 0.00167345 1.00051)
(0 0.00153627 1.00064)
(0 0.00139115 1.00074)
(0 0.0012383 1.00084)
(0 0.00107621 1.00092)
(0 0.000905214 1.00099)
(0 0.000727981 1.00104)
(0 0.000578687 1.00108)
(0 0.000263703 1.00113)
)
;

boundaryField
{
    movingWall
    {
        type            zeroGradient;
    }
    leftSide
    {
        type            fixedValue;
        value           uniform (0 0 1);
    }
    rightSide
    {
        type            zeroGradient;
    }
    bottomWall
    {
        type            noSlip;
    }
    bottomWall2
    {
        type            zeroGradient;
    }
    frontAndBack
    {
        type            empty;
    }
}


// ************************************************************************* //
