/*--------------------------------*- C++ -*----------------------------------*\
  =========                 |
  \\      /  F ield         | OpenFOAM: The Open Source CFD Toolbox
   \\    /   O peration     | Website:  https://openfoam.org
    \\  /    A nd           | Version:  10
     \\/     M anipulation  |
\*---------------------------------------------------------------------------*/
FoamFile
{
    format      ascii;
    class       volScalarField;
    location    "0.2";
    object      p;
}
// * * * * * * * * * * * * * * * * * * * * * * * * * * * * * * * * * * * * * //

dimensions      [0 2 -2 0 0 0 0];

internalField   nonuniform List<scalar> 
1200
(
3.76081e-10
-0.00133254
-0.00197467
-0.00246054
-0.00287439
-0.0032385
-0.00355982
-0.00384203
-0.00409082
-0.00431189
-0.0045108
-0.00469199
-0.00485622
-0.00500396
-0.00513608
-0.00525249
-0.00535313
-0.00543739
-0.00550326
-0.00556763
-0.000400352
-0.00156732
-0.00212584
-0.00259631
-0.00300772
-0.00337079
-0.00369183
-0.00397616
-0.00422893
-0.00445421
-0.0046561
-0.00483782
-0.00500158
-0.00514889
-0.00528045
-0.00539657
-0.00549716
-0.00558143
-0.00564772
-0.0057125
-0.00135833
-0.00210788
-0.00248659
-0.00288557
-0.0032621
-0.00360106
-0.00390244
-0.00417151
-0.00441384
-0.0046326
-0.0048303
-0.00500906
-0.00517013
-0.00531488
-0.00544437
-0.00555881
-0.00565807
-0.00574144
-0.00580736
-0.00587197
-0.00252415
-0.00286946
-0.00302756
-0.00331381
-0.00362259
-0.00391561
-0.00418365
-0.00442659
-0.00464819
-0.00485122
-0.00503787
-0.00520834
-0.00536314
-0.00550342
-0.00562902
-0.0057402
-0.00583693
-0.00591837
-0.00598307
-0.0060471
-0.00362875
-0.00372369
-0.00370352
-0.00386659
-0.00408017
-0.00430337
-0.004523
-0.00473307
-0.00492987
-0.00511265
-0.00528189
-0.00543817
-0.005583
-0.00571548
-0.00583494
-0.00594158
-0.00603454
-0.00611318
-0.00617594
-0.00623899
-0.00454409
-0.00454395
-0.00442981
-0.00449865
-0.00462036
-0.00476438
-0.00492094
-0.00508374
-0.00524701
-0.00540587
-0.00555671
-0.00569884
-0.00583126
-0.00595296
-0.00606437
-0.00616413
-0.00625175
-0.00632698
-0.00638694
-0.00644862
-0.00522838
-0.00523848
-0.00511715
-0.00513447
-0.00519026
-0.00527313
-0.00537464
-0.0054883
-0.00560981
-0.00573521
-0.00586155
-0.00598555
-0.00610365
-0.00621504
-0.00631695
-0.00640807
-0.00649001
-0.00656093
-0.00661701
-0.00667693
-0.00570935
-0.00576726
-0.00570519
-0.00571861
-0.00573971
-0.00577699
-0.00583568
-0.00591317
-0.00600321
-0.00610046
-0.00620173
-0.00630377
-0.00640523
-0.00650236
-0.00659116
-0.00667387
-0.00675004
-0.00681519
-0.00686691
-0.00692472
-0.00607859
-0.00617073
-0.00617553
-0.0062251
-0.00625169
-0.00627055
-0.00629953
-0.00634357
-0.00640303
-0.00647655
-0.00655931
-0.00664634
-0.00673274
-0.00681284
-0.00688922
-0.00696402
-0.00703194
-0.00709009
-0.00713736
-0.00719243
-0.00639744
-0.00649708
-0.0065418
-0.00663208
-0.00668516
-0.00671888
-0.00674872
-0.00678123
-0.00682233
-0.00687548
-0.00693883
-0.00700796
-0.00707546
-0.00714145
-0.00721024
-0.00727625
-0.00733455
-0.0073864
-0.00742885
-0.00748031
-0.00672087
-0.00680207
-0.00685819
-0.00696838
-0.0070407
-0.00709162
-0.00713448
-0.00717917
-0.00722914
-0.00728251
-0.00733652
-0.0073882
-0.00743804
-0.00749401
-0.00755336
-0.00760752
-0.00765732
-0.0077038
-0.00774081
-0.00778833
-0.0071315
-0.00717796
-0.00720467
-0.00729657
-0.00737808
-0.00744648
-0.00750673
-0.00756331
-0.00761841
-0.00767191
-0.00772214
-0.00776741
-0.00781432
-0.00786624
-0.00791462
-0.00795821
-0.00800141
-0.0080418
-0.00807287
-0.00811642
-0.00763167
-0.00765396
-0.00763507
-0.00768019
-0.00773904
-0.00781238
-0.00789202
-0.007964
-0.00802378
-0.00807378
-0.00811625
-0.00815638
-0.0082021
-0.00824778
-0.00828749
-0.008326
-0.00836434
-0.00839874
-0.00842454
-0.00846417
-0.00816823
-0.00819276
-0.00817315
-0.00819174
-0.00820185
-0.00823559
-0.00828948
-0.0083542
-0.00842024
-0.00847886
-0.00852574
-0.00856824
-0.00861
-0.00864549
-0.00867794
-0.00871174
-0.00874422
-0.00877332
-0.00879485
-0.00883076
-0.00872756
-0.00876405
-0.00878089
-0.00880994
-0.00880622
-0.00879979
-0.00879974
-0.00881779
-0.00885292
-0.00889542
-0.00893879
-0.00898451
-0.00902512
-0.00905725
-0.00908721
-0.00911591
-0.009142
-0.00916624
-0.00918348
-0.00921551
-0.00929225
-0.0093295
-0.00935467
-0.00939423
-0.00941387
-0.00941555
-0.00940838
-0.00940136
-0.00939763
-0.0093985
-0.0094103
-0.00943412
-0.00945946
-0.00948479
-0.00951101
-0.0095348
-0.00955632
-0.00957682
-0.00959012
-0.0096183
-0.00982831
-0.0098556
-0.00985102
-0.00988233
-0.00990709
-0.00992615
-0.00994647
-0.00995834
-0.00995851
-0.00994922
-0.00994287
-0.00994121
-0.00994189
-0.00994897
-0.00996083
-0.00997406
-0.00998863
-0.0100042
-0.0100133
-0.0100378
-0.0103465
-0.0103653
-0.0103504
-0.0103748
-0.0103783
-0.0103893
-0.0104096
-0.0104294
-0.0104427
-0.0104486
-0.0104523
-0.0104497
-0.0104436
-0.0104398
-0.010438
-0.0104389
-0.0104434
-0.010451
-0.0104543
-0.010474
-0.0109146
-0.0109299
-0.01094
-0.0109614
-0.0109498
-0.0109454
-0.0109404
-0.010938
-0.0109346
-0.010934
-0.0109362
-0.0109342
-0.0109305
-0.010926
-0.0109202
-0.0109153
-0.0109129
-0.0109138
-0.0109112
-0.0109256
-0.0116239
-0.0116295
-0.0116442
-0.0116395
-0.0116179
-0.011597
-0.011569
-0.0115414
-0.0115101
-0.0114847
-0.0114636
-0.0114443
-0.0114294
-0.011417
-0.011406
-0.0113967
-0.01139
-0.0113869
-0.0113804
-0.0113902
-0.0125043
-0.0124873
-0.0124399
-0.0123783
-0.0123273
-0.0122723
-0.0122211
-0.0121713
-0.0121195
-0.0120741
-0.0120309
-0.0119916
-0.0119586
-0.0119306
-0.0119076
-0.0118893
-0.0118757
-0.0118676
-0.0118575
-0.0118633
-0.0134464
-0.013402
-0.0132537
-0.0131376
-0.013038
-0.0129377
-0.0128575
-0.0127809
-0.0127108
-0.0126499
-0.0125927
-0.0125415
-0.0124964
-0.0124566
-0.0124229
-0.0123951
-0.0123734
-0.0123591
-0.0123444
-0.0123456
-0.0142429
-0.0141808
-0.013962
-0.0138282
-0.0136869
-0.0135596
-0.0134568
-0.0133575
-0.013272
-0.0131972
-0.0131295
-0.0130704
-0.0130182
-0.0129724
-0.0129331
-0.0128997
-0.0128727
-0.0128537
-0.0128354
-0.0128322
-0.0147711
-0.0147103
-0.0144853
-0.0143749
-0.0142204
-0.0140997
-0.0139925
-0.0138886
-0.0137995
-0.013719
-0.0136468
-0.0135835
-0.0135275
-0.0134787
-0.0134367
-0.0134009
-0.0133715
-0.0133503
-0.0133302
-0.0133239
-0.0150655
-0.0150209
-0.0148373
-0.0147711
-0.0146315
-0.014541
-0.0144458
-0.0143552
-0.0142757
-0.0142013
-0.0141337
-0.014073
-0.0140185
-0.0139704
-0.0139286
-0.0138928
-0.0138629
-0.0138411
-0.0138208
-0.0138127
-0.0152586
-0.0152357
-0.0151171
-0.0150896
-0.0149753
-0.0149223
-0.0148461
-0.0147775
-0.0147143
-0.0146533
-0.0145969
-0.0145446
-0.0144968
-0.0144537
-0.0144155
-0.0143823
-0.014354
-0.014333
-0.0143138
-0.0143047
-0.0154649
-0.0154543
-0.0153879
-0.0153845
-0.0153017
-0.0152775
-0.0152206
-0.0151741
-0.0151277
-0.0150819
-0.0150383
-0.0149969
-0.0149581
-0.0149224
-0.0148901
-0.0148616
-0.0148367
-0.0148181
-0.0148009
-0.014792
-0.0157408
-0.0157356
-0.0157078
-0.0157003
-0.0156524
-0.0156435
-0.0156054
-0.0155764
-0.0155444
-0.0155121
-0.0154804
-0.0154494
-0.0154197
-0.0153918
-0.0153661
-0.015343
-0.0153225
-0.0153069
-0.0152925
-0.0152844
-0.0160782
-0.0160755
-0.0160626
-0.0160576
-0.0160373
-0.0160312
-0.0160074
-0.0159892
-0.015968
-0.0159462
-0.015924
-0.0159019
-0.0158802
-0.0158594
-0.0158399
-0.0158221
-0.015806
-0.0157937
-0.0157822
-0.0157754
-0.0164718
-0.0164711
-0.0164659
-0.0164636
-0.0164542
-0.0164497
-0.0164362
-0.0164248
-0.0164111
-0.0163968
-0.0163819
-0.0163666
-0.0163514
-0.0163364
-0.0163222
-0.0163091
-0.016297
-0.0162876
-0.0162788
-0.0162733
-0.0169106
-0.0169105
-0.0169081
-0.0169067
-0.0169011
-0.0168976
-0.0168905
-0.0168836
-0.0168751
-0.016866
-0.0168563
-0.0168461
-0.0168358
-0.0168255
-0.0168156
-0.0168063
-0.0167975
-0.0167908
-0.0167843
-0.0167802
-0.0173759
-0.0173757
-0.0173749
-0.0173738
-0.0173709
-0.0173683
-0.0173642
-0.0173598
-0.0173546
-0.0173488
-0.0173425
-0.0173359
-0.0173291
-0.0173222
-0.0173155
-0.0173091
-0.0173031
-0.0172984
-0.0172938
-0.0172908
-0.017877
-0.0178772
-0.0178767
-0.0178762
-0.0178749
-0.0178735
-0.0178714
-0.0178689
-0.0178659
-0.0178625
-0.0178587
-0.0178546
-0.0178504
-0.017846
-0.0178417
-0.0178376
-0.0178336
-0.0178305
-0.0178275
-0.0178254
-0.0183885
-0.0183883
-0.0183878
-0.0183873
-0.0183863
-0.0183853
-0.0183839
-0.0183824
-0.0183806
-0.0183787
-0.0183765
-0.0183741
-0.0183716
-0.0183691
-0.0183665
-0.0183641
-0.0183616
-0.0183598
-0.0183579
-0.0183566
-0.0189307
-0.0189311
-0.0189317
-0.0189322
-0.0189325
-0.0189326
-0.0189324
-0.0189321
-0.0189315
-0.0189307
-0.0189297
-0.0189286
-0.0189274
-0.0189261
-0.0189248
-0.0189235
-0.0189222
-0.0189212
-0.0189202
-0.0189195
-0.0194806
-0.0194806
-0.0194804
-0.0194804
-0.0194805
-0.0194806
-0.0194809
-0.0194811
-0.0194814
-0.0194815
-0.0194816
-0.0194815
-0.0194813
-0.0194811
-0.0194807
-0.0194803
-0.0194799
-0.0194796
-0.0194792
-0.019479
-0.0200344
-0.0200356
-0.0200373
-0.0200386
-0.02004
-0.0200411
-0.0200422
-0.0200431
-0.020044
-0.0200447
-0.0200453
-0.0200458
-0.0200462
-0.0200465
-0.0200467
-0.0200469
-0.0200469
-0.0200469
-0.0200469
-0.020047
-0.0205916
-0.0205922
-0.0205934
-0.0205953
-0.0205973
-0.0205995
-0.0206016
-0.0206037
-0.0206055
-0.0206072
-0.0206086
-0.0206099
-0.0206109
-0.0206117
-0.0206123
-0.0206128
-0.0206131
-0.0206133
-0.0206133
-0.0206136
-0.0210927
-0.0210979
-0.0211028
-0.021107
-0.0211106
-0.0211137
-0.0211166
-0.0211191
-0.0211213
-0.0211233
-0.021125
-0.0211264
-0.0211276
-0.0211285
-0.0211292
-0.0211297
-0.0211299
-0.02113
-0.0211298
-0.0211296
-0.0215267
-0.0215348
-0.0215426
-0.0215496
-0.0215559
-0.0215613
-0.0215659
-0.0215698
-0.0215731
-0.0215758
-0.021578
-0.0215797
-0.0215811
-0.0215821
-0.0215828
-0.0215832
-0.0215834
-0.0215834
-0.021583
-0.0215825
-0.0038494
-0.00382594
-0.003824
-0.00383422
-0.00384192
-0.00385235
-0.00386839
-0.00389168
-0.00392105
-0.00395316
-0.00398748
-0.00402347
-0.00406053
-0.0040982
-0.00413561
-0.00417168
-0.00420519
-0.0042349
-0.00425945
-0.00427704
-0.00379961
-0.00380264
-0.00381225
-0.00382421
-0.00384581
-0.00386412
-0.00388077
-0.00390002
-0.0039232
-0.00395184
-0.00398591
-0.00402296
-0.0040618
-0.00410134
-0.00414036
-0.00417778
-0.00421243
-0.00424306
-0.00426849
-0.00428756
-0.00372271
-0.00374283
-0.00374851
-0.00375078
-0.0037743
-0.00381186
-0.00385657
-0.00389227
-0.00392272
-0.00395444
-0.00398874
-0.00402606
-0.00406651
-0.00410824
-0.00414968
-0.00418945
-0.00422615
-0.0042585
-0.00428548
-0.00430637
-0.00374361
-0.00376628
-0.00377588
-0.00377062
-0.00375954
-0.00376424
-0.00379312
-0.00383529
-0.00388644
-0.00393648
-0.00398269
-0.00402827
-0.00407383
-0.00411912
-0.00416379
-0.00420651
-0.00424586
-0.00428053
-0.00430961
-0.00433262
-0.00371627
-0.00373775
-0.00377512
-0.00381885
-0.00383453
-0.00383324
-0.00382686
-0.00383751
-0.00387053
-0.00391575
-0.00396859
-0.00402416
-0.00407837
-0.00413089
-0.00418114
-0.00422818
-0.00427105
-0.00430867
-0.00434022
-0.00436561
-0.00352601
-0.00354258
-0.00357775
-0.00363887
-0.00371489
-0.00378591
-0.00383338
-0.00386727
-0.00389578
-0.00393048
-0.00397687
-0.00403033
-0.00408757
-0.0041457
-0.00420166
-0.00425389
-0.00430117
-0.00434235
-0.00437672
-0.00440468
-0.00344743
-0.00345387
-0.0034564
-0.00347264
-0.0035194
-0.00359785
-0.00369263
-0.00378293
-0.00385889
-0.00392537
-0.00398596
-0.00404503
-0.0041062
-0.00416787
-0.00422801
-0.00428485
-0.00433648
-0.00438142
-0.00441875
-0.00444938
-0.00353242
-0.00353426
-0.00353337
-0.00353392
-0.00353937
-0.00356425
-0.00361553
-0.00369111
-0.00378424
-0.00387861
-0.0039656
-0.00404663
-0.00412206
-0.00419257
-0.00425924
-0.00432127
-0.00437728
-0.00442597
-0.00446616
-0.00449941
-0.00350147
-0.00351149
-0.00353056
-0.00356192
-0.00359714
-0.00363181
-0.0036671
-0.00371664
-0.00378456
-0.00386454
-0.00395443
-0.00404683
-0.00413466
-0.00421687
-0.00429282
-0.0043617
-0.00442299
-0.00447574
-0.0045188
-0.00455464
-0.00331518
-0.00333952
-0.00337371
-0.00342133
-0.00348729
-0.00356708
-0.0036517
-0.00373609
-0.00381407
-0.00389316
-0.00397977
-0.00406938
-0.00415981
-0.00424839
-0.00433126
-0.00440668
-0.00447347
-0.00453044
-0.00457648
-0.00461494
-0.00313809
-0.00317182
-0.00322157
-0.00328483
-0.00336247
-0.00345385
-0.0035606
-0.00367531
-0.00378798
-0.00389895
-0.00400332
-0.00410165
-0.00419804
-0.00429074
-0.00437795
-0.00445823
-0.00452953
-0.0045903
-0.00463919
-0.00468028
-0.00298386
-0.00301894
-0.00308336
-0.00317701
-0.0032895
-0.00340405
-0.00351897
-0.00363607
-0.00376015
-0.00388745
-0.00400931
-0.00412619
-0.00423601
-0.00433724
-0.00443089
-0.00451606
-0.00459135
-0.00465549
-0.00470698
-0.00475063
-0.00279649
-0.00284397
-0.00292388
-0.00304012
-0.00318277
-0.00333491
-0.00348563
-0.0036297
-0.00376793
-0.00389961
-0.00402912
-0.00415615
-0.0042752
-0.00438584
-0.00448731
-0.0045782
-0.00465797
-0.00472555
-0.00477962
-0.0048258
-0.0026014
-0.00267318
-0.00278665
-0.00293035
-0.00308808
-0.00325478
-0.00342898
-0.00360301
-0.00376681
-0.00391929
-0.00406406
-0.00419855
-0.00432402
-0.00444147
-0.00454864
-0.00464471
-0.00472888
-0.0047999
-0.0048566
-0.00490539
-0.0023764
-0.00249317
-0.00266501
-0.00285861
-0.00304816
-0.00323007
-0.0034104
-0.00359009
-0.00376645
-0.00393808
-0.00409826
-0.00424451
-0.00437998
-0.00450385
-0.00461592
-0.00471644
-0.0048043
-0.00487837
-0.00493754
-0.00498893
-0.00207144
-0.00226193
-0.00250757
-0.00276135
-0.00300138
-0.00322186
-0.0034247
-0.00361419
-0.00379716
-0.00397413
-0.00414037
-0.00429644
-0.00444053
-0.00457072
-0.00468825
-0.00479293
-0.00488403
-0.0049608
-0.00502204
-0.00507595
-0.00170429
-0.00200843
-0.00233263
-0.00263455
-0.00291541
-0.00317843
-0.00342165
-0.00364234
-0.00384367
-0.00402753
-0.00419868
-0.00435985
-0.00450801
-0.00464315
-0.00476535
-0.0048736
-0.00496769
-0.00504678
-0.00510967
-0.00516601
-0.0013306
-0.00179643
-0.00220688
-0.00255076
-0.00285499
-0.00313707
-0.00340388
-0.00365235
-0.0038785
-0.00408115
-0.00426524
-0.00443218
-0.00458371
-0.00472244
-0.00484748
-0.0049584
-0.00505496
-0.00513592
-0.00520005
-0.0052587
-0.000937528
-0.0016206
-0.00212161
-0.00251928
-0.00285864
-0.00315859
-0.00343112
-0.00368308
-0.00391711
-0.00413333
-0.00433006
-0.00450581
-0.00466427
-0.00480699
-0.0049343
-0.00504732
-0.00514559
-0.00522792
-0.00529288
-0.00535368
-0.000468144
-0.00143915
-0.00202899
-0.00247813
-0.00286129
-0.0031967
-0.00349148
-0.00375283
-0.00398918
-0.00420599
-0.00440396
-0.00458428
-0.00474797
-0.00489425
-0.00502445
-0.0051395
-0.00523907
-0.00532246
-0.00538786
-0.00545068
)
;

boundaryField
{
    movingWall
    {
        type            zeroGradient;
    }
    leftSide
    {
        type            zeroGradient;
    }
    rightSide
    {
        type            zeroGradient;
    }
    bottomWall
    {
        type            zeroGradient;
    }
    bottomWall2
    {
        type            zeroGradient;
    }
    frontAndBack
    {
        type            empty;
    }
}


// ************************************************************************* //
