/*--------------------------------*- C++ -*----------------------------------*\
  =========                 |
  \\      /  F ield         | OpenFOAM: The Open Source CFD Toolbox
   \\    /   O peration     | Website:  https://openfoam.org
    \\  /    A nd           | Version:  10
     \\/     M anipulation  |
\*---------------------------------------------------------------------------*/
FoamFile
{
    format      ascii;
    class       surfaceScalarField;
    location    "0.2";
    object      phi;
}
// * * * * * * * * * * * * * * * * * * * * * * * * * * * * * * * * * * * * * //

dimensions      [0 3 -1 0 0 0 0];

internalField   nonuniform List<scalar> 
2320
(
1.63807e-07
3.42443e-05
-3.44081e-05
1.42965e-07
3.57872e-05
-3.57663e-05
1.34714e-07
3.71315e-05
-3.71232e-05
1.28926e-07
3.85307e-05
-3.85249e-05
1.23528e-07
3.99797e-05
-3.99743e-05
1.17848e-07
4.14807e-05
-4.14751e-05
1.11784e-07
4.30355e-05
-4.30295e-05
1.05455e-07
4.46464e-05
-4.46401e-05
9.89808e-08
4.63158e-05
-4.63093e-05
9.24575e-08
4.8046e-05
-4.80395e-05
8.58094e-08
4.98396e-05
-4.9833e-05
7.88943e-08
5.16991e-05
-5.16922e-05
7.16945e-08
5.36268e-05
-5.36196e-05
6.41941e-08
5.56255e-05
-5.5618e-05
5.63935e-08
5.76976e-05
-5.76898e-05
4.82955e-08
5.98462e-05
-5.98381e-05
3.99048e-08
6.20739e-05
-6.20655e-05
3.12216e-08
6.43837e-05
-6.4375e-05
2.20311e-08
6.67788e-05
-6.67696e-05
6.92629e-05
-6.92536e-05
2.25145e-07
3.40191e-05
1.93191e-07
3.58191e-05
1.71283e-07
3.71534e-05
1.58056e-07
3.85439e-05
1.47724e-07
3.999e-05
1.38431e-07
4.149e-05
1.29766e-07
4.30442e-05
1.2148e-07
4.46547e-05
1.13331e-07
4.63239e-05
1.05173e-07
4.80542e-05
9.69118e-08
4.98479e-05
8.85529e-08
5.17075e-05
8.00966e-08
5.36353e-05
7.14716e-08
5.56341e-05
6.26337e-08
5.77065e-05
5.35643e-08
5.98552e-05
4.42211e-08
6.20832e-05
3.45294e-08
6.43934e-05
2.46536e-08
6.67887e-05
6.92733e-05
2.69164e-07
3.375e-05
2.42298e-07
3.5846e-05
2.15825e-07
3.71799e-05
1.93708e-07
3.8566e-05
1.76049e-07
4.00077e-05
1.62172e-07
4.15039e-05
1.50178e-07
4.30562e-05
1.39102e-07
4.46658e-05
1.28644e-07
4.63344e-05
1.18633e-07
4.80642e-05
1.08875e-07
4.98577e-05
9.92145e-08
5.17171e-05
8.95031e-08
5.3645e-05
7.96448e-08
5.56439e-05
6.96363e-08
5.77165e-05
5.94358e-08
5.98654e-05
4.89941e-08
6.20937e-05
3.83074e-08
6.44041e-05
2.73447e-08
6.67996e-05
6.92848e-05
2.90267e-07
3.34597e-05
2.76645e-07
3.58596e-05
2.50285e-07
3.72062e-05
2.25582e-07
3.85907e-05
2.0466e-07
4.00286e-05
1.86761e-07
4.15218e-05
1.71628e-07
4.30713e-05
1.58229e-07
4.46792e-05
1.45726e-07
4.63469e-05
1.33724e-07
4.80762e-05
1.22067e-07
4.98693e-05
1.10685e-07
5.17285e-05
9.94506e-08
5.36563e-05
8.82823e-08
5.56551e-05
7.70716e-08
5.77277e-05
6.57099e-08
5.98768e-05
5.41603e-08
6.21052e-05
4.23696e-08
6.44159e-05
3.02525e-08
6.68118e-05
6.92973e-05
2.97463e-07
3.31622e-05
2.95811e-07
3.58613e-05
2.75189e-07
3.72268e-05
2.52766e-07
3.86131e-05
2.31331e-07
4.00501e-05
2.11563e-07
4.15416e-05
1.93462e-07
4.30894e-05
1.77196e-07
4.46954e-05
1.6252e-07
4.63615e-05
1.48861e-07
4.80899e-05
1.35771e-07
4.98824e-05
1.22947e-07
5.17413e-05
1.10255e-07
5.36689e-05
9.76497e-08
5.56677e-05
8.50439e-08
5.77403e-05
7.24179e-08
5.98894e-05
5.96697e-08
6.2118e-05
4.66709e-08
6.44289e-05
3.33605e-08
6.68251e-05
6.9311e-05
3.01794e-07
3.28604e-05
3.05899e-07
3.58572e-05
2.91208e-07
3.72415e-05
2.72936e-07
3.86314e-05
2.53259e-07
4.00697e-05
2.33809e-07
4.1561e-05
2.15189e-07
4.3108e-05
1.9744e-07
4.47132e-05
1.80568e-07
4.63784e-05
1.64632e-07
4.81058e-05
1.49571e-07
4.98975e-05
1.35129e-07
5.17558e-05
1.21088e-07
5.3683e-05
1.07191e-07
5.56816e-05
9.33614e-08
5.77541e-05
7.95169e-08
5.99033e-05
6.54806e-08
6.2132e-05
5.12149e-08
6.44431e-05
3.66727e-08
6.68396e-05
6.93259e-05
3.07128e-07
3.25533e-05
3.10512e-07
3.58538e-05
2.9933e-07
3.72527e-05
2.85305e-07
3.86454e-05
2.6826e-07
4.00868e-05
2.50182e-07
4.15791e-05
2.3202e-07
4.31262e-05
2.14411e-07
4.47308e-05
1.97332e-07
4.63955e-05
1.8066e-07
4.81225e-05
1.64264e-07
4.99139e-05
1.48191e-07
5.17718e-05
1.32469e-07
5.36987e-05
1.17071e-07
5.5697e-05
1.01929e-07
5.77693e-05
8.67588e-08
5.99184e-05
7.1429e-08
6.21473e-05
5.59352e-08
6.44586e-05
4.01482e-08
6.68554e-05
6.93421e-05
3.17207e-07
3.22361e-05
3.19332e-07
3.58516e-05
3.06277e-07
3.72658e-05
2.93413e-07
3.86583e-05
2.7976e-07
4.01004e-05
2.64213e-07
4.15947e-05
2.47115e-07
4.31433e-05
2.29242e-07
4.47487e-05
2.11517e-07
4.64132e-05
1.94198e-07
4.81398e-05
1.77197e-07
4.99309e-05
1.60437e-07
5.17886e-05
1.43785e-07
5.37154e-05
1.27299e-07
5.57135e-05
1.10819e-07
5.77858e-05
9.42252e-08
5.9935e-05
7.75968e-08
6.2164e-05
6.08276e-08
6.44754e-05
4.3758e-08
6.68725e-05
6.93596e-05
3.32634e-07
3.19035e-05
3.3685e-07
3.58474e-05
3.19374e-07
3.72832e-05
3.03753e-07
3.86739e-05
2.89721e-07
4.01145e-05
2.7549e-07
4.16089e-05
2.60388e-07
4.31584e-05
2.4402e-07
4.4765e-05
2.26444e-07
4.64308e-05
2.08215e-07
4.8158e-05
1.9001e-07
4.99491e-05
1.72063e-07
5.18065e-05
1.54437e-07
5.3733e-05
1.3698e-07
5.5731e-05
1.19367e-07
5.78034e-05
1.01668e-07
5.99527e-05
8.39007e-08
6.21817e-05
6.58606e-08
6.44934e-05
4.75119e-08
6.68908e-05
6.93783e-05
3.46114e-07
3.15573e-05
3.55572e-07
3.5838e-05
3.36669e-07
3.73021e-05
3.18554e-07
3.8692e-05
3.01785e-07
4.01312e-05
2.85855e-07
4.16248e-05
2.70149e-07
4.31741e-05
2.54246e-07
4.47809e-05
2.37759e-07
4.64473e-05
2.20541e-07
4.81752e-05
2.0264e-07
4.9967e-05
1.84193e-07
5.1825e-05
1.65602e-07
5.37516e-05
1.4683e-07
5.57497e-05
1.27954e-07
5.78223e-05
1.09151e-07
5.99715e-05
9.02008e-08
6.22007e-05
7.09285e-08
6.45127e-05
5.13548e-08
6.69104e-05
6.93984e-05
3.60088e-07
3.11973e-05
3.76457e-07
3.58216e-05
3.58546e-07
3.73201e-05
3.39295e-07
3.87113e-05
3.20393e-07
4.01501e-05
3.02347e-07
4.16429e-05
2.84446e-07
4.3192e-05
2.66577e-07
4.47988e-05
2.48782e-07
4.64651e-05
2.30993e-07
4.8193e-05
2.12894e-07
4.99851e-05
1.94523e-07
5.18434e-05
1.75717e-07
5.37704e-05
1.56305e-07
5.57691e-05
1.36648e-07
5.78419e-05
1.16803e-07
5.99914e-05
9.66214e-08
6.22209e-05
7.61201e-08
6.45332e-05
5.52996e-08
6.69312e-05
6.94197e-05
3.78334e-07
3.08189e-05
4.01817e-07
3.57981e-05
3.8468e-07
3.73372e-05
3.63032e-07
3.87329e-05
3.41498e-07
4.01717e-05
3.20948e-07
4.16634e-05
3.01676e-07
4.32113e-05
2.82991e-07
4.48175e-05
2.64095e-07
4.6484e-05
2.44722e-07
4.82124e-05
2.25016e-07
5.00048e-05
2.05335e-07
5.1863e-05
1.85349e-07
5.37904e-05
1.65138e-07
5.57894e-05
1.44805e-07
5.78622e-05
1.24066e-07
6.00121e-05
1.02888e-07
6.2242e-05
8.13133e-08
6.45548e-05
5.92961e-08
6.69532e-05
6.94422e-05
3.89887e-07
3.0429e-05
4.1874e-07
3.57693e-05
4.04011e-07
3.73519e-05
3.84501e-07
3.87524e-05
3.63283e-07
4.01929e-05
3.40956e-07
4.16857e-05
3.19023e-07
4.32332e-05
2.97949e-07
4.48386e-05
2.77685e-07
4.65042e-05
2.5763e-07
4.82325e-05
2.37618e-07
5.00248e-05
2.17136e-07
5.18835e-05
1.95998e-07
5.38115e-05
1.74675e-07
5.58107e-05
1.53127e-07
5.78838e-05
1.31204e-07
6.0034e-05
1.08976e-07
6.22643e-05
8.63397e-08
6.45774e-05
6.32038e-08
6.69764e-05
6.94659e-05
3.94516e-07
3.00345e-05
4.26917e-07
3.57369e-05
4.14055e-07
3.73648e-05
3.99035e-07
3.87675e-05
3.81787e-07
4.02101e-05
3.61953e-07
4.17056e-05
3.39817e-07
4.32554e-05
3.16385e-07
4.4862e-05
2.92982e-07
4.65276e-05
2.70359e-07
4.82551e-05
2.48664e-07
5.00465e-05
2.27037e-07
5.19051e-05
2.05321e-07
5.38332e-05
1.83429e-07
5.58326e-05
1.61016e-07
5.79062e-05
1.38146e-07
6.00569e-05
1.14911e-07
6.22875e-05
9.12048e-08
6.46011e-05
6.69898e-08
6.70006e-05
6.94906e-05
4.10515e-07
2.9624e-05
4.46869e-07
3.57005e-05
4.30623e-07
3.7381e-05
4.12248e-07
3.87858e-05
3.93829e-07
4.02286e-05
3.75516e-07
4.17239e-05
3.55654e-07
4.32752e-05
3.34065e-07
4.48836e-05
3.10723e-07
4.6551e-05
2.86665e-07
4.82791e-05
2.62342e-07
5.00708e-05
2.38105e-07
5.19294e-05
2.14495e-07
5.38568e-05
1.91154e-07
5.58559e-05
1.67703e-07
5.79297e-05
1.44053e-07
6.00806e-05
1.2004e-07
6.23115e-05
9.55178e-08
6.46256e-05
7.04419e-08
6.70257e-05
6.95161e-05
4.34591e-07
2.91894e-05
4.76796e-07
3.56583e-05
4.56717e-07
3.74011e-05
4.31063e-07
3.88115e-05
4.06742e-07
4.02529e-05
3.83988e-07
4.17466e-05
3.6239e-07
4.32968e-05
3.41298e-07
4.49047e-05
3.19688e-07
4.65726e-05
2.97254e-07
4.83016e-05
2.73421e-07
5.00946e-05
2.48817e-07
5.1954e-05
2.24015e-07
5.38816e-05
1.99056e-07
5.58809e-05
1.74161e-07
5.79545e-05
1.4933e-07
6.01054e-05
1.24357e-07
6.23365e-05
9.90769e-08
6.46509e-05
7.33359e-08
6.70514e-05
6.95423e-05
4.41851e-07
2.87476e-05
4.89618e-07
3.56105e-05
4.71736e-07
3.7419e-05
4.46395e-07
3.88368e-05
4.2112e-07
4.02782e-05
3.95187e-07
4.17726e-05
3.70033e-07
4.3322e-05
3.45591e-07
4.49291e-05
3.22219e-07
4.6596e-05
2.9935e-07
4.83244e-05
2.76204e-07
5.01178e-05
2.52791e-07
5.19774e-05
2.28732e-07
5.39057e-05
2.03989e-07
5.59056e-05
1.78867e-07
5.79797e-05
1.53476e-07
6.01308e-05
1.27843e-07
6.23621e-05
1.01955e-07
6.46768e-05
7.5693e-08
6.70777e-05
6.95689e-05
4.36763e-07
2.83108e-05
4.88583e-07
3.55587e-05
4.74033e-07
3.74335e-05
4.53479e-07
3.88574e-05
4.30797e-07
4.03008e-05
4.06154e-07
4.17972e-05
3.80617e-07
4.33475e-05
3.54247e-07
4.49555e-05
3.28273e-07
4.66219e-05
3.02579e-07
4.83501e-05
2.77509e-07
5.01429e-05
2.53102e-07
5.20018e-05
2.28797e-07
5.393e-05
2.04404e-07
5.593e-05
1.79769e-07
5.80043e-05
1.54748e-07
6.01558e-05
1.29331e-07
6.23875e-05
1.03505e-07
6.47026e-05
7.72048e-08
6.7104e-05
6.95956e-05
4.52067e-07
2.78587e-05
5.09313e-07
3.55015e-05
4.90202e-07
3.74527e-05
4.66051e-07
3.88815e-05
4.39768e-07
4.03271e-05
4.13709e-07
4.18233e-05
3.87166e-07
4.3374e-05
3.6036e-07
4.49823e-05
3.33591e-07
4.66487e-05
3.06576e-07
4.83772e-05
2.80013e-07
5.01694e-05
2.53956e-07
5.20279e-05
2.28359e-07
5.39556e-05
2.03251e-07
5.59551e-05
1.78399e-07
5.80292e-05
1.53565e-07
6.01806e-05
1.28579e-07
6.24125e-05
1.0327e-07
6.47279e-05
7.74816e-08
6.71298e-05
6.96217e-05
4.89069e-07
2.73697e-05
5.52467e-07
3.54381e-05
5.22678e-07
3.74824e-05
4.85803e-07
3.89184e-05
4.5004e-07
4.03629e-05
4.1759e-07
4.18557e-05
3.86602e-07
4.3405e-05
3.57674e-07
4.50112e-05
3.29894e-07
4.66765e-05
3.02859e-07
4.84042e-05
2.76602e-07
5.01957e-05
2.5073e-07
5.20537e-05
2.25248e-07
5.39811e-05
2.00171e-07
5.59802e-05
1.75385e-07
5.80539e-05
1.50795e-07
6.02052e-05
1.26265e-07
6.2437e-05
1.01611e-07
6.47526e-05
7.6623e-08
6.71547e-05
6.9647e-05
5.00998e-07
2.68687e-05
5.62679e-07
3.53764e-05
5.2715e-07
3.7518e-05
4.82344e-07
3.89632e-05
4.42273e-07
4.0403e-05
4.06226e-07
4.18918e-05
3.73027e-07
4.34382e-05
3.42993e-07
4.50413e-05
3.14839e-07
4.67046e-05
2.88452e-07
4.84306e-05
2.63367e-07
5.02208e-05
2.39042e-07
5.20781e-05
2.15272e-07
5.40048e-05
1.9181e-07
5.60037e-05
1.68487e-07
5.80773e-05
1.45211e-07
6.02285e-05
1.21897e-07
6.24604e-05
9.84358e-08
6.47761e-05
7.46575e-08
6.71785e-05
6.9671e-05
4.47727e-07
2.64209e-05
4.92244e-07
3.53319e-05
4.62929e-07
3.75473e-05
4.26063e-07
3.90001e-05
3.94054e-07
4.0435e-05
3.63865e-07
4.1922e-05
3.36191e-07
4.34659e-05
3.10538e-07
4.50669e-05
2.86123e-07
4.67291e-05
2.63066e-07
4.84536e-05
2.40903e-07
5.02429e-05
2.19386e-07
5.20996e-05
1.98332e-07
5.40259e-05
1.77483e-07
5.60245e-05
1.56656e-07
5.80981e-05
1.35711e-07
6.02495e-05
1.14551e-07
6.24815e-05
9.30937e-08
6.47975e-05
7.11914e-08
6.72004e-05
6.96932e-05
3.36881e-07
2.60841e-05
3.52769e-07
3.5316e-05
3.38813e-07
3.75612e-05
3.22544e-07
3.90164e-05
3.07423e-07
4.04501e-05
2.91037e-07
4.19383e-05
2.7522e-07
4.34817e-05
2.59086e-07
4.5083e-05
2.42747e-07
4.67454e-05
2.26359e-07
4.847e-05
2.09721e-07
5.02596e-05
1.92894e-07
5.21164e-05
1.75853e-07
5.40429e-05
1.58539e-07
5.60418e-05
1.40912e-07
5.81157e-05
1.22908e-07
6.02675e-05
1.04487e-07
6.24999e-05
8.5617e-08
6.48164e-05
6.61669e-08
6.72199e-05
6.9713e-05
2.11951e-07
2.58721e-05
2.00047e-07
3.53279e-05
2.01684e-07
3.75596e-05
2.06251e-07
3.90118e-05
2.07966e-07
4.04484e-05
2.06469e-07
4.19398e-05
2.03237e-07
4.3485e-05
1.97713e-07
4.50886e-05
1.90601e-07
4.67525e-05
1.82042e-07
4.84786e-05
1.72146e-07
5.02695e-05
1.61125e-07
5.21274e-05
1.49077e-07
5.4055e-05
1.36106e-07
5.60548e-05
1.22304e-07
5.81295e-05
1.07727e-07
6.0282e-05
9.24358e-08
6.25152e-05
7.64978e-08
6.48323e-05
5.98417e-08
6.72365e-05
6.97301e-05
1.09841e-07
2.57623e-05
8.12429e-08
3.53565e-05
9.25259e-08
3.75483e-05
1.0958e-07
3.89947e-05
1.21881e-07
4.04361e-05
1.30753e-07
4.1931e-05
1.36523e-07
4.34792e-05
1.39197e-07
4.50859e-05
1.39484e-07
4.67522e-05
1.37515e-07
4.84805e-05
1.33576e-07
5.02734e-05
1.27909e-07
5.21331e-05
1.20681e-07
5.40622e-05
1.12063e-07
5.60634e-05
1.02201e-07
5.81394e-05
9.12168e-08
6.0293e-05
7.92315e-08
6.25272e-05
6.639e-08
6.48452e-05
5.26883e-08
6.72502e-05
6.97444e-05
4.58563e-08
2.57164e-05
1.36974e-08
3.53887e-05
2.68707e-08
3.75352e-05
4.69264e-08
3.89747e-05
6.22337e-08
4.04208e-05
7.52066e-08
4.1918e-05
8.49795e-08
4.34694e-05
9.19763e-08
4.50789e-05
9.65473e-08
4.67477e-05
9.87861e-08
4.84783e-05
9.89507e-08
5.02732e-05
9.7221e-08
5.21348e-05
9.37625e-08
5.40657e-05
8.87389e-08
5.60684e-05
8.22968e-08
5.81458e-05
7.45697e-08
6.03007e-05
6.5685e-08
6.25361e-05
5.58136e-08
6.4855e-05
4.50024e-08
6.7261e-05
6.9756e-05
1.26658e-08
2.57037e-05
-1.50334e-08
3.54164e-05
-2.82338e-09
3.75229e-05
1.39075e-08
3.89579e-05
2.7781e-08
4.04069e-05
4.03242e-08
4.19055e-05
5.03641e-08
4.34594e-05
5.84287e-08
4.50708e-05
6.45111e-08
4.67416e-05
6.86614e-08
4.84742e-05
7.10107e-08
5.02709e-05
7.1646e-08
5.21342e-05
7.06758e-08
5.40666e-05
6.82114e-08
5.60709e-05
6.43646e-08
5.81497e-05
5.92484e-08
6.03059e-05
5.29685e-08
6.25424e-05
4.56888e-08
6.48623e-05
3.74808e-08
6.72692e-05
6.9765e-05
9.80718e-10
2.57028e-05
-1.80258e-08
3.54354e-05
-9.32127e-09
3.75142e-05
1.67565e-09
3.89469e-05
1.19207e-08
4.03966e-05
2.14703e-08
4.18959e-05
2.964e-08
4.34512e-05
3.66802e-08
4.50638e-05
4.23982e-08
4.67359e-05
4.67796e-08
4.84698e-05
4.98231e-08
5.02678e-05
5.1529e-08
5.21325e-05
5.19289e-08
5.40662e-05
5.10657e-08
5.60718e-05
4.89979e-08
5.81517e-05
4.57972e-08
6.03091e-05
4.15348e-08
6.25466e-05
3.63367e-08
6.48675e-05
3.0295e-08
6.72753e-05
6.97718e-05
-2.77232e-09
2.57055e-05
-1.4064e-08
3.54467e-05
-8.21534e-09
3.75084e-05
-1.33986e-09
3.89401e-05
5.77362e-09
4.03895e-05
1.23821e-08
4.18893e-05
1.83778e-08
4.34452e-05
2.3753e-08
4.50584e-05
2.8336e-08
4.67313e-05
3.20816e-08
4.8466e-05
3.49273e-08
5.0265e-05
3.68302e-08
5.21306e-05
3.77697e-08
5.40653e-05
3.77395e-08
5.60718e-05
3.67523e-08
5.81527e-05
3.484e-08
6.0311e-05
3.20368e-08
6.25494e-05
2.84295e-08
6.48711e-05
2.41044e-08
6.72796e-05
6.97769e-05
-2.32979e-09
2.57079e-05
-8.14254e-09
3.54525e-05
-4.72543e-09
3.7505e-05
-8.57893e-10
3.89362e-05
3.61497e-09
4.03851e-05
7.82872e-09
4.18851e-05
1.19079e-08
4.34411e-05
1.57011e-08
4.50546e-05
1.90817e-08
4.67279e-05
2.19789e-08
4.84631e-05
2.4311e-08
5.02627e-05
2.60175e-08
5.21289e-05
2.70525e-08
5.40643e-05
2.73841e-08
5.60715e-05
2.69964e-08
5.81531e-05
2.58922e-08
6.03121e-05
2.40806e-08
6.25513e-05
2.16006e-08
6.48736e-05
1.85445e-08
6.72827e-05
6.97806e-05
-1.43438e-09
2.57093e-05
-3.87173e-09
3.54549e-05
-1.64202e-09
3.75027e-05
7.15783e-10
3.89338e-05
3.52751e-09
4.03822e-05
6.16888e-09
4.18824e-05
8.81318e-09
4.34385e-05
1.13231e-08
4.50521e-05
1.36324e-08
4.67256e-05
1.56779e-08
4.84611e-05
1.73906e-08
5.02609e-05
1.87128e-08
5.21276e-05
1.95939e-08
5.40634e-05
1.99934e-08
5.60711e-05
1.98826e-08
5.81532e-05
1.92485e-08
6.03127e-05
1.80843e-08
6.25524e-05
1.64069e-08
6.48753e-05
1.42865e-08
6.72848e-05
6.97833e-05
-1.51489e-09
2.57108e-05
-2.38658e-09
3.54558e-05
-9.69788e-10
3.75013e-05
5.63231e-10
3.89323e-05
2.41916e-09
4.03804e-05
4.22715e-09
4.18806e-05
6.06543e-09
4.34366e-05
7.83088e-09
4.50503e-05
9.4799e-09
4.67239e-05
1.09618e-08
4.84596e-05
1.22271e-08
5.02597e-05
1.32321e-08
5.21265e-05
1.39362e-08
5.40627e-05
1.43049e-08
5.60707e-05
1.43098e-08
5.81532e-05
1.39329e-08
6.03131e-05
1.31632e-08
6.25532e-05
1.19884e-08
6.48765e-05
1.04846e-08
6.72863e-05
6.97852e-05
5.63063e-10
2.57103e-05
5.16157e-10
3.54558e-05
1.29051e-09
3.75005e-05
2.10849e-09
3.89315e-05
3.09129e-09
4.03794e-05
4.08294e-09
4.18796e-05
5.13419e-09
4.34356e-05
6.1865e-09
4.50493e-05
7.21143e-09
4.67229e-05
8.16757e-09
4.84587e-05
9.01343e-09
5.02588e-05
9.70905e-09
5.21259e-05
1.02169e-08
5.40622e-05
1.05039e-08
5.60704e-05
1.05426e-08
5.81532e-05
1.03138e-08
6.03133e-05
9.80447e-09
6.25537e-05
9.00617e-09
6.48773e-05
7.96506e-09
6.72873e-05
6.97866e-05
-1.52984e-09
2.57118e-05
-1.37159e-09
3.54557e-05
-3.5859e-10
3.74995e-05
6.89797e-10
3.89304e-05
1.74797e-09
4.03783e-05
2.74143e-09
4.18787e-05
3.6824e-09
4.34347e-05
4.54836e-09
4.50484e-05
5.33489e-09
4.67221e-05
6.02961e-09
4.8458e-05
6.61935e-09
5.02582e-05
7.08847e-09
5.21254e-05
7.41937e-09
5.40618e-05
7.59372e-09
5.60702e-05
7.59323e-09
5.81532e-05
7.40235e-09
6.03135e-05
7.01057e-09
6.25541e-05
6.39076e-09
6.48779e-05
5.59724e-09
6.72881e-05
6.97876e-05
1.30097e-09
2.57105e-05
1.51546e-09
3.54554e-05
1.56906e-09
3.74995e-05
1.72428e-09
3.89303e-05
2.02629e-09
4.0378e-05
2.4248e-09
4.18783e-05
2.90394e-09
4.34342e-05
3.42516e-09
4.50479e-05
3.95555e-09
4.67216e-05
4.46177e-09
4.84575e-05
4.91479e-09
5.02578e-05
5.28901e-09
5.2125e-05
5.56248e-09
5.40616e-05
5.71692e-09
5.60701e-05
5.73746e-09
5.81532e-05
5.61267e-09
6.03136e-05
5.33664e-09
6.25544e-05
4.90201e-09
6.48783e-05
4.3312e-09
6.72887e-05
6.97885e-05
-4.04127e-10
2.57109e-05
1.48803e-10
3.54549e-05
1.09902e-09
3.74985e-05
1.92307e-09
3.89295e-05
2.57893e-09
4.03774e-05
3.09303e-09
4.18777e-05
3.49868e-09
4.34338e-05
3.81792e-09
4.50476e-05
4.07117e-09
4.67213e-05
4.26989e-09
4.84573e-05
4.41836e-09
5.02576e-05
4.51462e-09
5.21249e-05
4.55233e-09
5.40615e-05
4.52234e-09
5.60701e-05
4.41407e-09
5.81533e-05
4.21713e-09
6.03138e-05
3.92466e-09
6.25547e-05
3.51127e-09
6.48787e-05
3.01027e-09
6.72892e-05
6.97891e-05
3.81117e-10
2.57105e-05
3.38809e-10
3.54549e-05
3.26649e-10
3.74985e-05
5.2207e-10
3.89293e-05
8.88206e-10
4.0377e-05
1.34563e-09
4.18773e-05
1.83447e-09
4.34333e-05
2.31053e-09
4.50471e-05
2.74276e-09
4.67209e-05
3.10984e-09
4.84569e-05
3.39906e-09
5.02574e-05
3.60356e-09
5.21247e-05
3.72022e-09
5.40614e-05
3.74789e-09
5.60701e-05
3.68624e-09
5.81533e-05
3.53423e-09
6.0314e-05
3.29461e-09
6.25549e-05
2.97261e-09
6.4879e-05
2.58063e-09
6.72896e-05
6.97898e-05
2.50676e-09
2.5708e-05
3.88763e-09
3.54536e-05
4.61141e-09
3.74978e-05
4.96438e-09
3.89289e-05
5.0642e-09
4.03769e-05
5.01014e-09
4.18773e-05
4.87414e-09
4.34334e-05
4.69924e-09
4.50473e-05
4.50934e-09
4.67211e-05
4.31512e-09
4.84571e-05
4.11857e-09
5.02576e-05
3.91615e-09
5.21249e-05
3.70151e-09
5.40616e-05
3.46749e-09
5.60703e-05
3.20777e-09
5.81536e-05
2.91761e-09
6.03143e-05
2.59216e-09
6.25552e-05
2.21819e-09
6.48794e-05
1.84827e-09
6.729e-05
6.97903e-05
5.7443e-10
2.57074e-05
1.05889e-09
3.54531e-05
1.61063e-09
3.74973e-05
2.17896e-09
3.89284e-05
2.70831e-09
4.03764e-05
3.15625e-09
4.18769e-05
3.50075e-09
4.34331e-05
3.73706e-09
4.5047e-05
3.87104e-09
4.6721e-05
3.91352e-09
4.8457e-05
3.87688e-09
5.02576e-05
3.77301e-09
5.2125e-05
3.6122e-09
5.40618e-05
3.40263e-09
5.60705e-05
3.15026e-09
5.81538e-05
2.85941e-09
6.03146e-05
2.53685e-09
6.25556e-05
2.17854e-09
6.48798e-05
1.76845e-09
6.72904e-05
6.97907e-05
1.15535e-08
1.26415e-08
1.1694e-08
1.06483e-08
9.65579e-09
8.72823e-09
7.86776e-09
7.07171e-09
6.33479e-09
5.65046e-09
5.01186e-09
4.41232e-09
3.84559e-09
3.306e-09
2.78859e-09
2.28871e-09
1.80246e-09
1.32557e-09
8.68109e-10
4.49007e-09
3.45858e-05
4.52958e-09
3.587e-05
3.72786e-09
3.72036e-05
3.97843e-09
3.85848e-05
3.97615e-09
4.00187e-05
3.32325e-09
4.15062e-05
2.40869e-09
4.30486e-05
1.68954e-09
4.46479e-05
1.38779e-09
4.63063e-05
1.39247e-09
4.80265e-05
1.49194e-09
4.98109e-05
1.59351e-09
5.16616e-05
1.63234e-09
5.35811e-05
1.59397e-09
5.5572e-05
1.49292e-09
5.76369e-05
1.33976e-09
5.97784e-05
1.14336e-09
6.19995e-05
9.10138e-10
6.43032e-05
6.32348e-10
6.66924e-05
6.91705e-05
-6.90039e-09
3.45867e-05
-4.8086e-09
3.58679e-05
-2.00926e-09
3.72008e-05
-1.2441e-09
3.8584e-05
-1.24787e-10
4.00176e-05
2.2003e-09
4.15039e-05
4.28929e-09
4.30466e-05
5.50596e-09
4.46467e-05
5.85092e-09
4.6306e-05
5.65775e-09
4.80267e-05
5.37056e-09
4.98112e-05
5.12574e-09
5.16618e-05
4.89555e-09
5.35814e-05
4.64074e-09
5.55723e-05
4.30245e-09
5.76372e-05
3.85135e-09
5.97789e-05
3.28572e-09
6.20001e-05
2.60835e-09
6.43038e-05
1.77427e-09
6.66932e-05
6.91714e-05
2.44696e-09
3.45849e-05
2.65572e-09
3.58677e-05
2.73695e-09
3.72007e-05
3.50837e-09
3.85833e-05
3.16202e-09
4.00179e-05
2.29462e-09
4.15048e-05
2.57325e-09
4.30463e-05
4.07864e-09
4.46452e-05
5.80013e-09
4.63043e-05
7.13365e-09
4.80254e-05
7.91645e-09
4.98104e-05
8.12481e-09
5.16616e-05
7.96312e-09
5.35815e-05
7.55975e-09
5.55727e-05
6.96125e-09
5.76378e-05
6.19133e-09
5.97797e-05
5.25122e-09
6.2001e-05
4.13451e-09
6.4305e-05
2.83739e-09
6.66945e-05
6.91729e-05
-6.66359e-09
3.45834e-05
-3.84482e-09
3.58649e-05
1.12294e-09
3.71957e-05
5.36872e-09
3.8579e-05
9.42022e-09
4.00139e-05
1.1319e-08
4.15029e-05
1.11593e-08
4.30464e-05
1.0192e-08
4.46461e-05
9.56725e-09
4.63049e-05
9.67944e-09
4.80253e-05
1.0073e-08
4.981e-05
1.03771e-08
5.16613e-05
1.04082e-08
5.35815e-05
1.00561e-08
5.5573e-05
9.35323e-09
5.76385e-05
8.34965e-09
5.97807e-05
7.07601e-09
6.20023e-05
5.55355e-09
6.43065e-05
3.84942e-09
6.66962e-05
6.91748e-05
5.50619e-09
3.45817e-05
4.05337e-09
3.58663e-05
7.71924e-10
3.7199e-05
6.12765e-10
3.85792e-05
3.6011e-09
4.00109e-05
7.96004e-09
4.14985e-05
1.20308e-08
4.30424e-05
1.43854e-08
4.46438e-05
1.51095e-08
4.63042e-05
1.49521e-08
4.80254e-05
1.44191e-08
4.98105e-05
1.39244e-08
5.16618e-05
1.33868e-08
5.3582e-05
1.26738e-08
5.55738e-05
1.17065e-08
5.76395e-05
1.04274e-08
5.97819e-05
8.83314e-09
6.20039e-05
6.96064e-09
6.43084e-05
4.85194e-09
6.66983e-05
6.91771e-05
6.72997e-09
3.4579e-05
9.13092e-09
3.58639e-05
1.03473e-08
3.71978e-05
8.93888e-09
3.85806e-05
6.76695e-09
4.00131e-05
6.45918e-09
4.14988e-05
8.58622e-09
4.30402e-05
1.17679e-08
4.46406e-05
1.47833e-08
4.63012e-05
1.66137e-08
4.80236e-05
1.73548e-08
4.98098e-05
1.72558e-08
5.16619e-05
1.65645e-08
5.35827e-05
1.55227e-08
5.55748e-05
1.41807e-08
5.76408e-05
1.25324e-08
5.97836e-05
1.05807e-08
6.20059e-05
8.33818e-09
6.43106e-05
5.82977e-09
6.67008e-05
6.91799e-05
1.77075e-08
3.45753e-05
1.81634e-08
3.58635e-05
1.79337e-08
3.7198e-05
1.91352e-08
3.85794e-05
1.91719e-08
4.0013e-05
1.8082e-08
4.14999e-05
1.66768e-08
4.30416e-05
1.62521e-08
4.4641e-05
1.69063e-08
4.63005e-05
1.806e-08
4.80225e-05
1.90831e-08
4.98087e-05
1.94335e-08
5.16616e-05
1.90752e-08
5.35831e-05
1.80938e-08
5.55758e-05
1.6579e-08
5.76423e-05
1.46414e-08
5.97855e-05
1.23433e-08
6.20082e-05
9.72051e-09
6.43132e-05
6.81556e-09
6.67037e-05
6.91831e-05
7.7062e-09
3.45737e-05
1.04074e-08
3.58608e-05
1.37936e-08
3.71947e-05
1.70833e-08
3.85761e-05
2.05524e-08
4.00095e-05
2.34346e-08
4.1497e-05
2.47985e-08
4.30403e-05
2.47503e-08
4.46411e-05
2.3997e-08
4.63013e-05
2.33762e-08
4.80231e-05
2.29134e-08
4.98092e-05
2.24233e-08
5.16621e-05
2.17003e-08
5.35838e-05
2.05074e-08
5.5577e-05
1.88039e-08
5.7644e-05
1.66281e-08
5.97877e-05
1.40279e-08
6.20108e-05
1.10546e-08
6.43162e-05
7.76872e-09
6.6707e-05
6.91867e-05
9.97722e-09
3.45711e-05
1.16458e-08
3.58591e-05
1.27195e-08
3.71936e-05
1.50849e-08
3.85737e-05
1.78311e-08
4.00068e-05
2.11935e-08
4.14937e-05
2.4644e-08
4.30368e-05
2.71554e-08
4.46386e-05
2.84167e-08
4.63e-05
2.84795e-08
4.8023e-05
2.76724e-08
4.981e-05
2.65047e-08
5.16632e-05
2.50517e-08
5.35853e-05
2.32749e-08
5.55788e-05
2.11462e-08
5.76462e-05
1.86087e-08
5.97902e-05
1.56625e-08
6.20137e-05
1.23404e-08
6.43195e-05
8.69118e-09
6.67107e-05
6.91907e-05
1.65862e-09
3.45686e-05
7.65768e-09
3.58531e-05
1.41316e-08
3.71871e-05
1.86899e-08
3.85692e-05
2.17471e-08
4.00037e-05
2.40229e-08
4.14914e-05
2.59261e-08
4.30349e-05
2.78358e-08
4.46366e-05
2.96365e-08
4.62982e-05
3.06078e-08
4.8022e-05
3.06479e-08
4.981e-05
2.98121e-08
5.16641e-05
2.82038e-08
5.35869e-05
2.60817e-08
5.55809e-05
2.35359e-08
5.76487e-05
2.05871e-08
5.97932e-05
1.72608e-08
6.2017e-05
1.35788e-08
6.43232e-05
9.5682e-09
6.67147e-05
6.9195e-05
6.83771e-09
3.45647e-05
1.12446e-08
3.58487e-05
1.595e-08
3.71824e-05
2.16333e-08
3.85635e-05
2.66575e-08
3.99987e-05
3.03001e-08
4.14878e-05
3.2221e-08
4.3033e-05
3.3148e-08
4.46357e-05
3.34724e-08
4.62979e-05
3.34558e-08
4.80221e-05
3.31813e-08
4.98103e-05
3.2268e-08
5.1665e-05
3.06817e-08
5.35885e-05
2.84747e-08
5.55831e-05
2.56913e-08
5.76515e-05
2.24433e-08
5.97964e-05
1.87881e-08
6.20207e-05
1.47648e-08
6.43272e-05
1.04084e-08
6.6719e-05
6.91997e-05
2.24253e-09
3.45609e-05
9.9735e-09
3.5841e-05
1.84149e-08
3.7174e-05
2.42647e-08
3.85576e-05
2.89247e-08
3.99941e-05
3.28708e-08
4.14838e-05
3.59262e-08
4.30299e-05
3.78873e-08
4.46338e-05
3.84513e-08
4.62973e-05
3.80602e-08
4.80224e-05
3.69267e-08
4.98114e-05
3.52359e-08
5.16667e-05
3.31597e-08
5.35905e-05
3.06103e-08
5.55856e-05
2.75843e-08
5.76545e-05
2.41054e-08
5.97999e-05
2.01881e-08
6.20246e-05
1.58688e-08
6.43315e-05
1.11935e-08
6.67237e-05
6.92047e-05
8.28158e-09
3.45552e-05
1.6034e-08
3.58332e-05
2.39369e-08
3.71661e-05
3.04737e-08
3.85511e-05
3.49059e-08
3.99896e-05
3.76299e-08
4.14811e-05
3.95206e-08
4.30281e-05
4.08618e-08
4.46324e-05
4.15371e-08
4.62966e-05
4.13948e-08
4.80226e-05
4.02252e-08
4.98126e-05
3.83471e-08
5.16685e-05
3.58867e-08
5.3593e-05
3.29116e-08
5.55886e-05
2.95207e-08
5.76579e-05
2.57122e-08
5.98037e-05
2.14969e-08
6.20288e-05
1.6895e-08
6.43361e-05
1.19287e-08
6.67287e-05
6.92101e-05
5.6898e-09
3.45488e-05
1.73337e-08
3.58216e-05
2.8296e-08
3.71551e-05
3.56075e-08
3.85438e-05
4.07922e-08
3.99844e-05
4.40509e-08
4.14778e-05
4.56902e-08
4.30264e-05
4.60146e-08
4.46321e-05
4.55588e-08
4.62971e-05
4.4493e-08
4.80237e-05
4.29616e-08
4.98141e-05
4.09259e-08
5.16706e-05
3.82559e-08
5.35957e-05
3.50542e-08
5.55918e-05
3.13715e-08
5.76616e-05
2.72456e-08
5.98078e-05
2.27342e-08
6.20333e-05
1.78548e-08
6.4341e-05
1.26128e-08
6.67339e-05
6.92156e-05
1.50559e-08
3.45393e-05
2.67262e-08
3.58099e-05
3.52631e-08
3.71466e-05
4.15883e-08
3.85375e-05
4.60339e-08
3.998e-05
4.88404e-08
4.1475e-05
5.03059e-08
4.3025e-05
5.06076e-08
4.46318e-05
4.99318e-08
4.62978e-05
4.84081e-08
4.80252e-05
4.63229e-08
4.98162e-05
4.36988e-08
5.16732e-05
4.0592e-08
5.35988e-05
3.7055e-08
5.55953e-05
3.3062e-08
5.76656e-05
2.86561e-08
5.98122e-05
2.38752e-08
6.20381e-05
1.87436e-08
6.43461e-05
1.3257e-08
6.67394e-05
6.92215e-05
1.83021e-08
3.45267e-05
3.30982e-08
3.57951e-05
4.29718e-08
3.71367e-05
4.82192e-08
3.85322e-05
5.14102e-08
3.99768e-05
5.35843e-08
4.14728e-05
5.46667e-08
4.30239e-05
5.4661e-08
4.46318e-05
5.36015e-08
4.62988e-05
5.17765e-08
4.8027e-05
4.93386e-08
4.98186e-05
4.63117e-08
5.16762e-05
4.28478e-08
5.36022e-05
3.8952e-08
5.55992e-05
3.46407e-08
5.76699e-05
2.99548e-08
5.98169e-05
2.49089e-08
6.20432e-05
1.95442e-08
6.43515e-05
1.38466e-08
6.67451e-05
6.92276e-05
3.31198e-08
3.45082e-05
4.68617e-08
3.57814e-05
5.28082e-08
3.71307e-05
5.56883e-08
3.85293e-05
5.80941e-08
3.99744e-05
5.91665e-08
4.14718e-05
5.92781e-08
4.30238e-05
5.86235e-08
4.46325e-05
5.71979e-08
4.63002e-05
5.50733e-08
4.80291e-05
5.22053e-08
4.98215e-05
4.87808e-08
5.16797e-05
4.49339e-08
5.36061e-05
4.06752e-08
5.56035e-05
3.60728e-08
5.76745e-05
3.11291e-08
5.98219e-05
2.584e-08
6.20484e-05
2.02571e-08
6.43571e-05
1.43895e-08
6.6751e-05
6.92339e-05
4.37842e-08
3.44836e-05
5.67197e-08
3.57684e-05
6.07753e-08
3.71267e-05
6.44614e-08
3.85257e-05
6.61919e-08
3.99727e-05
6.61841e-08
4.14718e-05
6.49409e-08
4.3025e-05
6.29029e-08
4.46345e-05
6.04763e-08
4.63027e-05
5.77164e-08
4.80319e-05
5.45201e-08
4.98247e-05
5.08976e-08
5.16833e-05
4.67774e-08
5.36102e-05
4.22402e-08
5.5608e-05
3.73717e-08
5.76794e-05
3.21774e-08
5.98271e-05
2.66694e-08
6.2054e-05
2.08716e-08
6.43629e-05
1.48721e-08
6.6757e-05
6.92404e-05
6.50007e-08
3.445e-05
6.83578e-08
3.57651e-05
7.08516e-08
3.71242e-05
7.23159e-08
3.85242e-05
7.25896e-08
3.99724e-05
7.19262e-08
4.14724e-05
7.03705e-08
4.30266e-05
6.7885e-08
4.4637e-05
6.46967e-08
4.63059e-05
6.09897e-08
4.80356e-05
5.70014e-08
4.98287e-05
5.27882e-08
5.16875e-05
4.8295e-08
5.36147e-05
4.3531e-08
5.56128e-05
3.8454e-08
5.76845e-05
3.30747e-08
5.98325e-05
2.74087e-08
6.20596e-05
2.13979e-08
6.43689e-05
1.53034e-08
6.67631e-05
6.9247e-05
8.30136e-08
8.17585e-08
8.27143e-08
8.20326e-08
8.01154e-08
7.74966e-08
7.45889e-08
7.14914e-08
6.8062e-08
6.41427e-08
5.981e-08
5.51259e-08
5.01825e-08
4.50239e-08
3.96352e-08
3.40108e-08
2.81457e-08
2.20395e-08
1.54978e-08
)
;

boundaryField
{
    movingWall
    {
        type            calculated;
        value           nonuniform List<scalar> 
60
(
1.27165e-08
1.42418e-08
1.59083e-08
1.7718e-08
1.96646e-08
2.17471e-08
2.39555e-08
2.62871e-08
2.87558e-08
3.13247e-08
3.39906e-08
3.67549e-08
3.95391e-08
4.22867e-08
4.48767e-08
4.71514e-08
4.90897e-08
5.056e-08
5.13291e-08
5.13614e-08
5.06628e-08
4.90207e-08
4.6352e-08
4.27138e-08
3.83714e-08
3.34674e-08
2.84721e-08
2.34747e-08
1.90201e-08
1.48553e-08
1.15801e-08
8.56576e-09
6.52485e-09
4.56954e-09
3.49269e-09
2.35082e-09
1.9549e-09
1.32762e-09
1.33693e-09
6.67192e-10
2.20293e-10
8.02403e-10
1.38568e-09
1.94403e-09
2.50959e-09
3.06055e-09
3.62482e-09
4.17244e-09
4.71062e-09
5.2212e-09
5.71408e-09
6.17563e-09
6.61374e-09
7.0203e-09
7.40712e-09
7.76135e-09
8.09266e-09
8.38961e-09
8.66142e-09
8.90221e-09
)
;
    }
    leftSide
    {
        type            calculated;
        value           nonuniform List<scalar> 
20
(
-3.4585e-05
-3.587e-05
-3.72028e-05
-3.85851e-05
-4.00187e-05
-4.15056e-05
-4.30477e-05
-4.46472e-05
-4.6306e-05
-4.80265e-05
-4.9811e-05
-5.16617e-05
-5.35812e-05
-5.5572e-05
-5.76368e-05
-5.97783e-05
-6.19993e-05
-6.43029e-05
-6.66921e-05
-6.91701e-05
)
;
    }
    rightSide
    {
        type            calculated;
        value           nonuniform List<scalar> 
20
(
2.56959e-05
3.5452e-05
3.74982e-05
3.89294e-05
4.03774e-05
4.18778e-05
4.34339e-05
4.50478e-05
4.67217e-05
4.84577e-05
5.02582e-05
5.21256e-05
5.40624e-05
5.60711e-05
5.81544e-05
6.03151e-05
6.2556e-05
6.48803e-05
6.72908e-05
6.97909e-05
)
;
    }
    bottomWall
    {
        type            calculated;
        value           uniform 0;
    }