/*--------------------------------*- C++ -*----------------------------------*\
  =========                 |
  \\      /  F ield         | OpenFOAM: The Open Source CFD Toolbox
   \\    /   O peration     | Website:  https://openfoam.org
    \\  /    A nd           | Version:  10
     \\/     M anipulation  |
\*---------------------------------------------------------------------------*/
FoamFile
{
    format      ascii;
    class       volVectorField;
    location    "0.2";
    object      U;
}
// * * * * * * * * * * * * * * * * * * * * * * * * * * * * * * * * * * * * * //

dimensions      [0 1 -1 0 0 0 0];

internalField   nonuniform List<vector> 
1200
(
(0 0.00207887 0.992381)
(0 0.00369808 0.997379)
(0 0.00314788 0.998011)
(0 0.00292629 0.99853)
(0 0.0027787 0.998954)
(0 0.00264712 0.999324)
(0 0.00251723 0.999641)
(0 0.00237739 0.999914)
(0 0.00223605 1.00015)
(0 0.00209178 1.00034)
(0 0.00194626 1.00051)
(0 0.00179763 1.00065)
(0 0.00164252 1.00078)
(0 0.00148136 1.00089)
(0 0.00131457 1.00098)
(0 0.0011406 1.00106)
(0 0.000959392 1.00113)
(0 0.000771805 1.00119)
(0 0.000614388 1.00123)
(0 0.000280722 1.00127)
(0 0.00297135 0.985014)
(0 0.00498235 0.997603)
(0 0.00386253 0.998198)
(0 0.0034852 0.998693)
(0 0.00323897 0.999113)
(0 0.00303323 0.999475)
(0 0.0028444 0.999784)
(0 0.00266166 1.00005)
(0 0.00248575 1.00028)
(0 0.00231057 1.00047)
(0 0.00213507 1.00065)
(0 0.00195768 1.00079)
(0 0.00177896 1.00092)
(0 0.00159837 1.00103)
(0 0.00141389 1.00113)
(0 0.00122426 1.00121)
(0 0.00102838 1.00127)
(0 0.000825977 1.00133)
(0 0.000659577 1.00137)
(0 0.000303132 1.00142)
(0 0.0036504 0.977851)
(0 0.00599274 0.998031)
(0 0.00450154 0.998568)
(0 0.00403279 0.998989)
(0 0.00371077 0.999369)
(0 0.00343841 0.999705)
(0 0.00318856 0.999994)
(0 0.00295128 1.00025)
(0 0.00272928 1.00047)
(0 0.00251819 1.00066)
(0 0.00231543 1.00082)
(0 0.00211752 1.00097)
(0 0.00191977 1.00109)
(0 0.00171985 1.0012)
(0 0.00151787 1.00129)
(0 0.00131177 1.00137)
(0 0.00109989 1.00143)
(0 0.000882103 1.00148)
(0 0.00070646 1.00153)
(0 0.000326398 1.00157)
(0 0.00397555 0.97062)
(0 0.00651067 0.998621)
(0 0.00492187 0.999132)
(0 0.00449304 0.999433)
(0 0.004129 0.999742)
(0 0.00380244 1.00003)
(0 0.00350628 1.00028)
(0 0.00323534 1.0005)
(0 0.00298342 1.0007)
(0 0.00274101 1.00087)
(0 0.00250802 1.00103)
(0 0.00228146 1.00116)
(0 0.00205862 1.00128)
(0 0.00183984 1.00138)
(0 0.00162133 1.00147)
(0 0.00139926 1.00155)
(0 0.00117234 1.00161)
(0 0.000939488 1.00166)
(0 0.000754657 1.0017)
(0 0.000350436 1.00174)
(0 0.00407641 0.963068)
(0 0.00664326 0.999222)
(0 0.00512064 0.999813)
(0 0.00482588 0.999983)
(0 0.00448672 1.0002)
(0 0.00413387 1.00042)
(0 0.00379237 1.00063)
(0 0.00347996 1.00082)
(0 0.00319682 1.00099)
(0 0.00293537 1.00114)
(0 0.00268653 1.00128)
(0 0.00244199 1.00139)
(0 0.00220217 1.0015)
(0 0.00196432 1.00159)
(0 0.00172622 1.00167)
(0 0.00148755 1.00174)
(0 0.00124494 1.0018)
(0 0.000996802 1.00185)
(0 0.000803323 1.00189)
(0 0.000374951 1.00193)
(0 0.00405932 0.954976)
(0 0.00658774 0.999719)
(0 0.00515574 1.00056)
(0 0.00501491 1.00063)
(0 0.00472067 1.00075)
(0 0.00438291 1.00088)
(0 0.00405029 1.00101)
(0 0.0037269 1.00115)
(0 0.00341746 1.00129)
(0 0.00312441 1.00143)
(0 0.00284695 1.00155)
(0 0.00258468 1.00166)
(0 0.00233065 1.00175)
(0 0.00207778 1.00183)
(0 0.00182708 1.0019)
(0 0.00157446 1.00196)
(0 0.00131671 1.00202)
(0 0.00105407 1.00206)
(0 0.000852256 1.0021)
(0 0.000399768 1.00214)
(0 0.00397819 0.946339)
(0 0.00641987 1.00001)
(0 0.00506075 1.00127)
(0 0.00509088 1.0013)
(0 0.00484114 1.00134)
(0 0.00452258 1.00142)
(0 0.00419736 1.0015)
(0 0.00388604 1.00158)
(0 0.00358794 1.00167)
(0 0.00329656 1.00176)
(0 0.00301166 1.00185)
(0 0.00273271 1.00194)
(0 0.00245694 1.00202)
(0 0.00218785 1.00209)
(0 0.00192212 1.00215)
(0 0.00165443 1.0022)
(0 0.00138481 1.00225)
(0 0.00110928 1.00229)
(0 0.000900026 1.00232)
(0 0.000424571 1.00236)
(0 0.00397298 0.937202)
(0 0.00632593 1.00002)
(0 0.00498268 1.00184)
(0 0.00510619 1.00187)
(0 0.00491449 1.00188)
(0 0.00463249 1.0019)
(0 0.00432099 1.00195)
(0 0.00400722 1.00201)
(0 0.00370192 1.00207)
(0 0.00340919 1.00214)
(0 0.0031269 1.0022)
(0 0.00284711 1.00226)
(0 0.0025702 1.00232)
(0 0.00229299 1.00238)
(0 0.00201127 1.00242)
(0 0.00173203 1.00247)
(0 0.00145156 1.00251)
(0 0.00116159 1.00254)
(0 0.000946043 1.00257)
(0 0.000449212 1.0026)
(0 0.00402641 0.927565)
(0 0.00639093 0.999816)
(0 0.00502278 1.00231)
(0 0.0051341 1.0024)
(0 0.00492894 1.00241)
(0 0.00466349 1.00241)
(0 0.00439543 1.00241)
(0 0.00411603 1.00242)
(0 0.00382509 1.00245)
(0 0.00352996 1.0025)
(0 0.0032357 1.00255)
(0 0.0029473 1.0026)
(0 0.00266334 1.00265)
(0 0.00237323 1.00269)
(0 0.00208552 1.00272)
(0 0.00180375 1.00275)
(0 0.0015128 1.00279)
(0 0.00120993 1.00281)
(0 0.000990894 1.00283)
(0 0.000473803 1.00287)
(0 0.0040424 0.917475)
(0 0.00646097 0.999409)
(0 0.00508693 1.00268)
(0 0.00521868 1.00284)
(0 0.0049672 1.00288)
(0 0.0046794 1.00289)
(0 0.00440367 1.0029)
(0 0.00413363 1.0029)
(0 0.0038712 1.0029)
(0 0.00360764 1.00291)
(0 0.00333425 1.00293)
(0 0.00305047 1.00296)
(0 0.00275177 1.00298)
(0 0.00244921 1.003)
(0 0.00215945 1.00303)
(0 0.00186898 1.00306)
(0 0.0015658 1.00308)
(0 0.0012539 1.0031)
(0 0.00103339 1.00312)
(0 0.000497634 1.00315)
(0 0.00409215 0.907124)
(0 0.00654371 0.998813)
(0 0.00522728 1.00293)
(0 0.00534931 1.00314)
(0 0.00505741 1.0032)
(0 0.00475766 1.00324)
(0 0.00446861 1.00326)
(0 0.00419023 1.00328)
(0 0.00392154 1.00331)
(0 0.00365663 1.00333)
(0 0.00338715 1.00334)
(0 0.00310383 1.00335)
(0 0.00280672 1.00335)
(0 0.00251727 1.00336)
(0 0.00222902 1.00338)
(0 0.00192678 1.00339)
(0 0.00161585 1.0034)
(0 0.00129628 1.00341)
(0 0.00107344 1.00342)
(0 0.00052066 1.00344)
(0 0.00416909 0.896467)
(0 0.00669726 0.998183)
(0 0.00545996 1.00324)
(0 0.00553394 1.00347)
(0 0.00517736 1.00355)
(0 0.00482973 1.0036)
(0 0.00454387 1.00363)
(0 0.00428495 1.00365)
(0 0.00402639 1.00368)
(0 0.00375249 1.0037)
(0 0.00346189 1.00371)
(0 0.00315586 1.00372)
(0 0.00285811 1.00372)
(0 0.00257426 1.00373)
(0 0.0022775 1.00373)
(0 0.00197037 1.00373)
(0 0.00165996 1.00373)
(0 0.00133346 1.00374)
(0 0.00110978 1.00374)
(0 0.0005429 1.00376)
(0 0.00411045 0.885348)
(0 0.00670841 0.997506)
(0 0.0055239 1.00365)
(0 0.00568739 1.0039)
(0 0.00533217 1.00394)
(0 0.00495387 1.004)
(0 0.00463482 1.00406)
(0 0.00434442 1.0041)
(0 0.00407449 1.00411)
(0 0.00380418 1.00412)
(0 0.00351584 1.00411)
(0 0.00321542 1.0041)
(0 0.00292746 1.0041)
(0 0.00263259 1.0041)
(0 0.00232052 1.00409)
(0 0.0020109 1.00409)
(0 0.00169784 1.00409)
(0 0.00136262 1.00409)
(0 0.00114038 1.00408)
(0 0.000563221 1.0041)
(0 0.00400415 0.874063)
(0 0.00654861 0.99673)
(0 0.00541428 1.0041)
(0 0.00569239 1.00439)
(0 0.00540032 1.00437)
(0 0.00509843 1.00439)
(0 0.00478548 1.00442)
(0 0.0044655 1.00446)
(0 0.00415331 1.0045)
(0 0.00384638 1.00453)
(0 0.00353566 1.00453)
(0 0.00324258 1.00452)
(0 0.00296248 1.00452)
(0 0.00266187 1.0045)
(0 0.00235202 1.00448)
(0 0.00204546 1.00446)
(0 0.00172803 1.00445)
(0 0.00138514 1.00445)
(0 0.00116546 1.00444)
(0 0.000580957 1.00445)
(0 0.00405578 0.862626)
(0 0.00655055 0.995878)
(0 0.00547364 1.00463)
(0 0.00566589 1.005)
(0 0.00536195 1.005)
(0 0.00509473 1.00497)
(0 0.004829 1.00493)
(0 0.00456013 1.00491)
(0 0.00426588 1.00491)
(0 0.00393986 1.00491)
(0 0.00360127 1.00491)
(0 0.00329129 1.00492)
(0 0.00298573 1.00492)
(0 0.00267085 1.0049)
(0 0.00236403 1.00488)
(0 0.00205853 1.00486)
(0 0.00174078 1.00484)
(0 0.0013959 1.00482)
(0 0.00118154 1.00481)
(0 0.000594662 1.00481)
(0 0.00412007 0.85039)
(0 0.00673651 0.994813)
(0 0.00566931 1.00519)
(0 0.00573184 1.00568)
(0 0.00535998 1.00571)
(0 0.00501053 1.00567)
(0 0.00473884 1.00562)
(0 0.00449433 1.00556)
(0 0.00423488 1.0055)
(0 0.00393446 1.00544)
(0 0.00362619 1.00539)
(0 0.00332726 1.00536)
(0 0.00300728 1.00533)
(0 0.00268445 1.0053)
(0 0.00237171 1.00528)
(0 0.00205867 1.00526)
(0 0.0017399 1.00523)
(0 0.00139385 1.00521)
(0 0.00118573 1.00519)
(0 0.000602669 1.00519)
(0 0.0039715 0.837459)
(0 0.00670542 0.993471)
(0 0.00561327 1.00563)
(0 0.00575367 1.00626)
(0 0.00535746 1.00625)
(0 0.00497585 1.00623)
(0 0.00468209 1.0062)
(0 0.00440085 1.00616)
(0 0.00411621 1.00611)
(0 0.00381349 1.00603)
(0 0.00353828 1.00596)
(0 0.00326078 1.00589)
(0 0.00295838 1.00582)
(0 0.00265568 1.00577)
(0 0.00235078 1.00572)
(0 0.00204039 1.00567)
(0 0.00172624 1.00564)
(0 0.00138085 1.00561)
(0 0.00117952 1.00558)
(0 0.000605249 1.00557)
(0 0.00380159 0.824725)
(0 0.00642631 0.992006)
(0 0.00538563 1.00594)
(0 0.00566371 1.00673)
(0 0.00525505 1.00669)
(0 0.00494109 1.00667)
(0 0.00465808 1.00663)
(0 0.00436734 1.0066)
(0 0.0040471 1.00656)
(0 0.00372339 1.00651)
(0 0.00344022 1.00645)
(0 0.00314917 1.00638)
(0 0.00285486 1.00631)
(0 0.00256908 1.00624)
(0 0.00227842 1.00617)
(0 0.00198374 1.0061)
(0 0.0016848 1.00605)
(0 0.00134835 1.00601)
(0 0.00115916 1.00597)
(0 0.000601275 1.00595)
(0 0.00389611 0.812117)
(0 0.00636113 0.990499)
(0 0.00545861 1.00634)
(0 0.00562951 1.00726)
(0 0.00516997 1.00727)
(0 0.00487288 1.00724)
(0 0.00457868 1.00718)
(0 0.0042977 1.00713)
(0 0.00396523 1.00705)
(0 0.00365049 1.00698)
(0 0.00335778 1.00691)
(0 0.00305014 1.00684)
(0 0.00275386 1.00676)
(0 0.00246765 1.00668)
(0 0.00218189 1.00661)
(0 0.00189966 1.00654)
(0 0.00161662 1.00647)
(0 0.00129348 1.00642)
(0 0.00112073 1.00637)
(0 0.000588739 1.00635)
(0 0.00407321 0.798533)
(0 0.00663191 0.988793)
(0 0.00578436 1.00701)
(0 0.0056556 1.00805)
(0 0.0051575 1.00809)
(0 0.00476412 1.008)
(0 0.00443269 1.0079)
(0 0.00412635 1.00779)
(0 0.00378212 1.00766)
(0 0.00348967 1.00755)
(0 0.00320151 1.00743)
(0 0.00290547 1.00731)
(0 0.00262367 1.00721)
(0 0.00234558 1.00711)
(0 0.00206972 1.00702)
(0 0.00180006 1.00693)
(0 0.00153259 1.00686)
(0 0.0012239 1.0068)
(0 0.00106771 1.00675)
(0 0.00056824 1.00671)
(0 0.00386641 0.783851)
(0 0.0066703 0.987001)
(0 0.00566642 1.008)
(0 0.00541706 1.00923)
(0 0.00494089 1.00914)
(0 0.00446724 1.00891)
(0 0.00415404 1.00873)
(0 0.00381934 1.00853)
(0 0.00348483 1.00834)
(0 0.0032139 1.00817)
(0 0.00293846 1.008)
(0 0.00267175 1.00785)
(0 0.00241861 1.0077)
(0 0.00216642 1.00757)
(0 0.00191647 1.00745)
(0 0.00167068 1.00735)
(0 0.00142727 1.00726)
(0 0.00113929 1.00719)
(0 0.00100172 1.00713)
(0 0.000540673 1.00709)
(0 0.00311245 0.769675)
(0 0.00591866 0.985452)
(0 0.0046414 1.00897)
(0 0.00465271 1.0104)
(0 0.00423104 1.0101)
(0 0.003834 1.00974)
(0 0.00362301 1.00945)
(0 0.00331809 1.00916)
(0 0.00305309 1.00891)
(0 0.00282538 1.00869)
(0 0.00258691 1.00848)
(0 0.00236312 1.00829)
(0 0.00214662 1.00812)
(0 0.00193062 1.00796)
(0 0.00171609 1.00783)
(0 0.00150333 1.00771)
(0 0.0012929 1.0076)
(0 0.00103389 1.00752)
(0 0.000919211 1.00745)
(0 0.00050457 1.0074)
(0 0.00208251 0.758149)
(0 0.00442919 0.984667)
(0 0.00298954 1.00966)
(0 0.00347608 1.0112)
(0 0.00309324 1.01078)
(0 0.0029338 1.01038)
(0 0.00284724 1.01002)
(0 0.00263843 1.00968)
(0 0.00248781 1.0094)
(0 0.00233179 1.00914)
(0 0.00216151 1.00891)
(0 0.00199747 1.0087)
(0 0.00182982 1.00851)
(0 0.00165884 1.00835)
(0 0.00148511 1.0082)
(0 0.00130967 1.00808)
(0 0.00113634 1.00797)
(0 0.000911279 1.00788)
(0 0.000821646 1.0078)
(0 0.00046013 1.00774)
(0 0.00115831 0.750294)
(0 0.00275561 0.984608)
(0 0.00138922 1.00974)
(0 0.00224337 1.01126)
(0 0.00188715 1.01086)
(0 0.00199768 1.01053)
(0 0.00199433 1.01019)
(0 0.0019092 1.00987)
(0 0.00186786 1.0096)
(0 0.00179013 1.00935)
(0 0.00169795 1.00912)
(0 0.00159913 1.00891)
(0 0.0014877 1.00873)
(0 0.00136732 1.00857)
(0 0.00123822 1.00842)
(0 0.00110271 1.00829)
(0 0.000968049 1.00818)
(0 0.000779482 1.00809)
(0 0.000714232 1.00802)
(0 0.000408951 1.00795)
(0 0.000538694 0.745921)
(0 0.00138596 0.985318)
(0 0.000297824 1.00956)
(0 0.00124996 1.01096)
(0 0.000929684 1.0107)
(0 0.00122346 1.01047)
(0 0.00124973 1.0102)
(0 0.00127063 1.00996)
(0 0.00130077 1.00974)
(0 0.00128624 1.00953)
(0 0.00125794 1.00933)
(0 0.00121374 1.00915)
(0 0.00115289 1.00899)
(0 0.00107911 1.00884)
(0 0.000992504 1.00871)
(0 0.000895616 1.00859)
(0 0.000798355 1.00848)
(0 0.000646725 1.0084)
(0 0.000603928 1.00833)
(0 0.000354346 1.00826)
(0 0.000230014 0.743876)
(0 0.000517544 0.986097)
(0 -0.000217512 1.00904)
(0 0.000616923 1.01029)
(0 0.000331084 1.01018)
(0 0.000692106 1.01004)
(0 0.00070989 1.00986)
(0 0.000793147 1.00971)
(0 0.000852782 1.00955)
(0 0.000877071 1.00939)
(0 0.000888293 1.00924)
(0 0.000880721 1.0091)
(0 0.000856596 1.00897)
(0 0.000818329 1.00884)
(0 0.00076605 1.00873)
(0 0.000701635 1.00863)
(0 0.000636528 1.00854)
(0 0.000519344 1.00846)
(0 0.000495172 1.0084)
(0 0.000298105 1.00833)
(0 7.63652e-05 0.743269)
(0 0.000113368 0.98711)
(0 -0.000318339 1.00884)
(0 0.000248424 1.00994)
(0 4.83225e-05 1.00995)
(0 0.000370374 1.00987)
(0 0.000374454 1.00977)
(0 0.000476601 1.00968)
(0 0.000537653 1.00957)
(0 0.000578423 1.00947)
(0 0.000607185 1.00936)
(0 0.000619288 1.00926)
(0 0.00061726 1.00916)
(0 0.000602153 1.00906)
(0 0.000574127 1.00897)
(0 0.000533902 1.00889)
(0 0.000493563 1.00882)
(0 0.000405782 1.00875)
(0 0.000395661 1.0087)
(0 0.000244643 1.00864)
(0 2.36996e-05 0.743081)
(0 -1.29508e-05 0.987544)
(0 -0.000254855 1.00833)
(0 7.40477e-05 1.00935)
(0 -3.10422e-05 1.00942)
(0 0.000195411 1.00937)
(0 0.000195609 1.00933)
(0 0.000284147 1.00927)
(0 0.000333409 1.00921)
(0 0.000374623 1.00915)
(0 0.000406009 1.00908)
(0 0.000425245 1.00901)
(0 0.000433732 1.00894)
(0 0.000431617 1.00887)
(0 0.000418928 1.0088)
(0 0.000395235 1.00874)
(0 0.000372229 1.00868)
(0 0.000308218 1.00862)
(0 0.0003069 1.00858)
(0 0.000194588 1.00853)
(0 -3.4494e-06 0.743276)
(0 -4.78284e-05 0.988241)
(0 -0.000161747 1.00843)
(0 1.54062e-05 1.00943)
(0 -3.02654e-05 1.0095)
(0 0.000106461 1.00947)
(0 0.000111898 1.00945)
(0 0.000175416 1.00943)
(0 0.000211361 1.00939)
(0 0.000245263 1.00935)
(0 0.000271938 1.00931)
(0 0.000290788 1.00926)
(0 0.000302115 1.00921)
(0 0.000305688 1.00917)
(0 0.000301407 1.00912)
(0 0.000287993 1.00907)
(0 0.000276158 1.00902)
(0 0.000230266 1.00898)
(0 0.000234204 1.00895)
(0 0.000152122 1.00891)
(0 -4.16004e-06 0.743188)
(0 -3.59538e-05 0.988099)
(0 -8.32046e-05 1.00794)
(0 3.1528e-06 1.00892)
(0 -1.34195e-05 1.00898)
(0 6.07841e-05 1.00897)
(0 7.03563e-05 1.00896)
(0 0.000110801 1.00895)
(0 0.000135869 1.00893)
(0 0.000160933 1.0089)
(0 0.000181255 1.00888)
(0 0.000196889 1.00885)
(0 0.000207518 1.00881)
(0 0.000212803 1.00878)
(0 0.000212598 1.00875)
(0 0.000205219 1.00871)
(0 0.000199829 1.00868)
(0 0.000167491 1.00865)
(0 0.00017306 1.00863)
(0 0.000114638 1.00859)
(0 -4.39147e-06 0.743482)
(0 -1.93636e-05 0.988652)
(0 -3.51516e-05 1.00834)
(0 8.5284e-06 1.00932)
(0 5.52465e-06 1.00937)
(0 4.31706e-05 1.00936)
(0 5.33847e-05 1.00936)
(0 7.73083e-05 1.00935)
(0 9.38803e-05 1.00934)
(0 0.000110744 1.00933)
(0 0.000124819 1.00931)
(0 0.000136239 1.00929)
(0 0.000144522 1.00927)
(0 0.000149336 1.00925)
(0 0.000150542 1.00922)
(0 0.000146387 1.0092)
(0 0.000144463 1.00918)
(0 0.000121727 1.00915)
(0 0.000127908 1.00914)
(0 8.62407e-05 1.00911)
(0 -5.79665e-06 0.743208)
(0 -1.67453e-05 0.988153)
(0 -1.74969e-05 1.00773)
(0 2.99762e-06 1.00871)
(0 6.82712e-06 1.00875)
(0 2.67289e-05 1.00874)
(0 3.61851e-05 1.00874)
(0 5.11955e-05 1.00874)
(0 6.28605e-05 1.00873)
(0 7.45024e-05 1.00872)
(0 8.44287e-05 1.00871)
(0 9.26958e-05 1.0087)
(0 9.89052e-05 1.00868)
(0 0.000102801 1.00867)
(0 0.000104318 1.00865)
(0 0.00010188 1.00864)
(0 0.000101399 1.00862)
(0 8.56003e-05 1.0086)
(0 9.03691e-05 1.00859)
(0 6.15595e-05 1.00857)
(0 2.81923e-06 0.74363)
(0 4.17177e-06 0.988777)
(0 3.82319e-06 1.00835)
(0 1.34576e-05 1.00933)
(0 1.67289e-05 1.00936)
(0 2.58258e-05 1.00936)
(0 3.17046e-05 1.00936)
(0 3.98328e-05 1.00936)
(0 4.68348e-05 1.00935)
(0 5.39428e-05 1.00935)
(0 6.02586e-05 1.00934)
(0 6.5705e-05 1.00933)
(0 6.99462e-05 1.00932)
(0 7.2741e-05 1.00931)
(0 7.40413e-05 1.0093)
(0 7.25336e-05 1.00929)
(0 7.27329e-05 1.00928)
(0 6.16818e-05 1.00927)
(0 6.58859e-05 1.00926)
(0 4.52674e-05 1.00925)
(0 -7.94998e-06 0.74313)
(0 -1.20566e-05 0.988095)
(0 -6.71943e-06 1.00762)
(0 1.90354e-06 1.0086)
(0 7.79218e-06 1.00863)
(0 1.56351e-05 1.00863)
(0 2.16339e-05 1.00863)
(0 2.79577e-05 1.00863)
(0 3.34123e-05 1.00862)
(0 3.84633e-05 1.00862)
(0 4.27899e-05 1.00861)
(0 4.63875e-05 1.00861)
(0 4.91082e-05 1.0086)
(0 5.08201e-05 1.0086)
(0 5.15527e-05 1.00859)
(0 5.0292e-05 1.00858)
(0 5.02898e-05 1.00857)
(0 4.25186e-05 1.00857)
(0 4.47384e-05 1.00856)
(0 3.06012e-05 1.00855)
(0 6.61843e-06 0.743739)
(0 9.36995e-06 0.988799)
(0 1.01058e-05 1.00833)
(0 1.0128e-05 1.0093)
(0 1.19362e-05 1.00934)
(0 1.43624e-05 1.00934)
(0 1.71336e-05 1.00934)
(0 2.05687e-05 1.00934)
(0 2.39993e-05 1.00934)
(0 2.74371e-05 1.00934)
(0 3.05912e-05 1.00934)
(0 3.33169e-05 1.00933)
(0 3.54503e-05 1.00933)
(0 3.68494e-05 1.00933)
(0 3.75249e-05 1.00932)
(0 3.67503e-05 1.00932)
(0 3.68443e-05 1.00931)
(0 3.13651e-05 1.00931)
(0 3.32057e-05 1.0093)
(0 2.25914e-05 1.0093)
(0 -3.98755e-06 0.743026)
(0 -1.0697e-06 0.988051)
(0 3.23617e-06 1.00759)
(0 1.01148e-05 1.00856)
(0 1.41859e-05 1.0086)
(0 1.78626e-05 1.0086)
(0 2.06978e-05 1.0086)
(0 2.29331e-05 1.0086)
(0 2.46998e-05 1.00859)
(0 2.61369e-05 1.00859)
(0 2.72459e-05 1.00859)
(0 2.80438e-05 1.00859)
(0 2.84956e-05 1.00859)
(0 2.85403e-05 1.00859)
(0 2.82046e-05 1.00858)
(0 2.69532e-05 1.00858)
(0 2.63461e-05 1.00858)
(0 2.22142e-05 1.00857)
(0 2.23718e-05 1.00857)
(0 1.46926e-05 1.00857)
(0 2.64509e-06 0.743742)
(0 1.10341e-06 0.988741)
(0 2.28383e-06 1.00824)
(0 1.98629e-06 1.00921)
(0 4.07922e-06 1.00925)
(0 6.77914e-06 1.00925)
(0 9.62193e-06 1.00925)
(0 1.2604e-05 1.00925)
(0 1.53978e-05 1.00925)
(0 1.78361e-05 1.00925)
(0 1.98283e-05 1.00925)
(0 2.13296e-05 1.00925)
(0 2.23091e-05 1.00925)
(0 2.27408e-05 1.00925)
(0 2.26857e-05 1.00925)
(0 2.18422e-05 1.00925)
(0 2.12696e-05 1.00924)
(0 1.81604e-05 1.00924)
(0 1.84412e-05 1.00924)
(0 1.18125e-05 1.00924)
(0 9.07525e-06 0.742898)
(0 2.04272e-05 0.987962)
(0 2.46217e-05 1.00752)
(0 2.79411e-05 1.0085)
(0 2.92766e-05 1.00853)
(0 2.92075e-05 1.00854)
(0 2.86604e-05 1.00854)
(0 2.78147e-05 1.00854)
(0 2.67911e-05 1.00854)
(0 2.57189e-05 1.00854)
(0 2.46265e-05 1.00854)
(0 2.34998e-05 1.00854)
(0 2.23107e-05 1.00854)
(0 2.10157e-05 1.00854)
(0 1.9617e-05 1.00854)
(0 1.78534e-05 1.00854)
(0 1.64269e-05 1.00854)
(0 1.36786e-05 1.00854)
(0 1.29057e-05 1.00854)
(0 7.7549e-06 1.00853)
(0 9.98638e-07 0.743534)
(0 3.26255e-06 0.988552)
(0 7.90686e-06 1.00805)
(0 1.11115e-05 1.00903)
(0 1.41684e-05 1.00907)
(0 1.69105e-05 1.00907)
(0 1.91396e-05 1.00907)
(0 2.07188e-05 1.00907)
(0 2.17092e-05 1.00907)
(0 2.21677e-05 1.00908)
(0 2.21532e-05 1.00908)
(0 2.17316e-05 1.00908)
(0 2.09651e-05 1.00908)
(0 1.9901e-05 1.00908)
(0 1.86179e-05 1.00908)
(0 1.69926e-05 1.00908)
(0 1.53845e-05 1.00908)
(0 1.27534e-05 1.00907)
(0 1.25075e-05 1.00907)
(0 7.50678e-06 1.00907)
(0 4.3952e-05 0.742408)
(0 7.10771e-05 0.987585)
(0 6.64184e-05 1.00717)
(0 6.05928e-05 1.00815)
(0 5.51928e-05 1.00819)
(0 5.00156e-05 1.00819)
(0 4.51621e-05 1.0082)
(0 4.06533e-05 1.0082)
(0 3.64823e-05 1.0082)
(0 3.26122e-05 1.0082)
(0 2.90082e-05 1.0082)
(0 2.5635e-05 1.0082)
(0 2.24585e-05 1.0082)
(0 1.94418e-05 1.0082)
(0 1.65792e-05 1.0082)
(0 1.37767e-05 1.0082)
(0 1.12351e-05 1.0082)
(0 8.09676e-06 1.0082)
(0 6.39464e-06 1.0082)
(0 3.5801e-06 1.0082)
(0 7.36452e-05 0.995458)
(0 8.094e-05 0.999603)
(0 3.92122e-05 0.999947)
(0 5.79459e-05 0.999959)
(0 6.1461e-05 0.999957)
(0 5.71051e-05 0.999965)
(0 4.1652e-05 0.999976)
(0 2.61002e-05 0.999986)
(0 1.99918e-05 0.999994)
(0 1.88895e-05 0.999999)
(0 2.01448e-05 1)
(0 2.21944e-05 1)
(0 2.32176e-05 1)
(0 2.31288e-05 1)
(0 2.20893e-05 1)
(0 2.02304e-05 1)
(0 1.77268e-05 1)
(0 1.4617e-05 1)
(0 1.08402e-05 1)
(0 4.39063e-06 1)
(0 -8.98473e-05 1.00451)
(0 -0.000113882 1.0004)
(0 -2.49486e-05 1.0001)
(0 -2.74728e-05 1.00007)
(0 -1.95935e-05 1.00007)
(0 1.65348e-05 1.00005)
(0 5.16792e-05 1.00003)
(0 8.07624e-05 1.00001)
(0 8.88816e-05 0.999998)
(0 8.50202e-05 0.999993)
(0 8.08165e-05 0.999994)
(0 7.63931e-05 0.999997)
(0 7.29517e-05 1)
(0 6.98814e-05 1)
(0 6.56998e-05 1)
(0 5.99804e-05 1.00001)
(0 5.25744e-05 1.00001)
(0 4.35584e-05 1.00001)
(0 3.27434e-05 1.00001)
(0 1.34286e-05 1.00001)
(0 1.27308e-05 0.995522)
(0 4.67226e-05 0.999594)
(0 4.81951e-05 0.999897)
(0 5.44025e-05 0.99989)
(0 5.70724e-05 0.999921)
(0 2.86227e-05 0.999961)
(0 2.8714e-05 1.00001)
(0 5.0548e-05 1.00002)
(0 7.63452e-05 1.00002)
(0 0.000103548 1.00002)
(0 0.000119297 1.00001)
(0 0.000124076 1.00001)
(0 0.000123775 1.00001)
(0 0.000119027 1.00001)
(0 0.000111163 1.00001)
(0 0.000100806 1.00002)
(0 8.79247e-05 1.00002)
(0 7.26815e-05 1.00002)
(0 5.52405e-05 1.00003)
(0 2.30735e-05 1.00003)
(0 -0.000128785 1.00414)
(0 -0.000116854 1.00019)
(0 -1.2867e-05 0.999928)
(0 5.60899e-05 0.999881)
(0 0.00013951 0.999834)
(0 0.000180826 0.999821)
(0 0.000188256 0.999855)
(0 0.000160102 0.999895)
(0 0.000147705 0.999943)
(0 0.00015054 0.999978)
(0 0.000155599 0.999996)
(0 0.000163309 1.00001)
(0 0.000167052 1.00002)
(0 0.000163855 1.00002)
(0 0.000155192 1.00003)
(0 0.000141475 1.00004)
(0 0.000123518 1.00004)
(0 0.000102315 1.00005)
(0 7.8391e-05 1.00005)
(0 3.30292e-05 1.00006)
(0 6.64262e-05 0.995914)
(0 0.000101433 0.999755)
(0 1.56942e-05 1.00003)
(0 -3.52632e-06 1.00008)
(0 2.65336e-05 1.00005)
(0 0.00010603 1.00001)
(0 0.00018636 0.999954)
(0 0.000230159 0.999921)
(0 0.000254216 0.999926)
(0 0.000248001 0.999942)
(0 0.000238316 0.999968)
(0 0.000232527 0.999995)
(0 0.000224776 1.00002)
(0 0.000215421 1.00003)
(0 0.000202284 1.00005)
(0 0.000183823 1.00006)
(0 0.000160467 1.00007)
(0 0.000133103 1.00007)
(0 0.000102856 1.00008)
(0 4.38218e-05 1.00009)
(0 7.31579e-05 1.00367)
(0 0.000149815 0.999886)
(0 0.000192198 0.999734)
(0 0.000170229 0.999813)
(0 0.000110762 0.999896)
(0 9.64542e-05 0.999979)
(0 0.000119351 1.00001)
(0 0.000181933 1.00001)
(0 0.000242954 1)
(0 0.000277505 0.999988)
(0 0.000297828 0.999994)
(0 0.000299101 1.00001)
(0 0.000289863 1.00003)
(0 0.000275481 1.00005)
(0 0.000255311 1.00006)
(0 0.000229987 1.00008)
(0 0.000199783 1.0001)
(0 0.00016552 1.00011)
(0 0.000128545 1.00012)
(0 5.5122e-05 1.00013)
(0 0.000253578 0.995619)
(0 0.000365464 0.999374)
(0 0.000316607 0.999577)
(0 0.000354276 0.999562)
(0 0.000349281 0.999587)
(0 0.000328996 0.999669)
(0 0.000294165 0.999774)
(0 0.000279969 0.999873)
(0 0.000286838 0.999938)
(0 0.000312501 0.999984)
(0 0.000336669 1.00001)
(0 0.000346965 1.00003)
(0 0.000346571 1.00005)
(0 0.000333547 1.00007)
(0 0.000310247 1.00009)
(0 0.000279411 1.00011)
(0 0.000242132 1.00013)
(0 0.000200223 1.00015)
(0 0.00015612 1.00016)
(0 6.74365e-05 1.00017)
(0 0.000113403 1.00358)
(0 0.000171273 1.00002)
(0 0.000221191 0.999859)
(0 0.000286932 0.999787)
(0 0.000353238 0.999726)
(0 0.000429462 0.99969)
(0 0.000455234 0.999696)
(0 0.000451951 0.999745)
(0 0.000442785 0.999824)
(0 0.000432264 0.999905)
(0 0.000423131 0.999969)
(0 0.000418751 1.00002)
(0 0.000410709 1.00006)
(0 0.000392874 1.00009)
(0 0.000365933 1.00012)
(0 0.000329862 1.00015)
(0 0.000285826 1.00017)
(0 0.000236313 1.00019)
(0 0.000184849 1.0002)
(0 8.02642e-05 1.00022)
(0 0.000144084 0.996038)
(0 0.000231534 0.999689)
(0 0.00023198 0.9999)
(0 0.000263337 0.999888)
(0 0.000306735 0.999891)
(0 0.000376241 0.999876)
(0 0.000438373 0.999848)
(0 0.00050379 0.999841)
(0 0.000543072 0.999862)
(0 0.000545889 0.999898)
(0 0.000535785 0.999954)
(0 0.000519062 1.00002)
(0 0.000494463 1.00007)
(0 0.000464757 1.00012)
(0 0.000428533 1.00015)
(0 0.000383964 1.00019)
(0 0.000331813 1.00022)
(0 0.000273806 1.00024)
(0 0.00021469 1.00026)
(0 9.37554e-05 1.00027)
(0 -1.34571e-05 1.00311)
(0 7.33707e-05 0.999705)
(0 0.000240949 0.999643)
(0 0.000334883 0.999645)
(0 0.000407581 0.999698)
(0 0.000451995 0.999759)
(0 0.000483794 0.999823)
(0 0.00053448 0.999886)
(0 0.00057529 0.999924)
(0 0.000602057 0.999957)
(0 0.000616087 1)
(0 0.00060589 1.00005)
(0 0.000579329 1.0001)
(0 0.000542854 1.00015)
(0 0.000496582 1.00019)
(0 0.000442059 1.00023)
(0 0.00038033 1.00026)
(0 0.00031276 1.00029)
(0 0.000245388 1.00031)
(0 0.000107577 1.00033)
(0 6.59298e-05 0.995792)
(0 0.000194693 0.999254)
(0 0.000274291 0.999464)
(0 0.000373819 0.999493)
(0 0.000502786 0.999543)
(0 0.000593722 0.99959)
(0 0.000648869 0.999671)
(0 0.000677631 0.99977)
(0 0.000682317 0.999862)
(0 0.000690561 0.999952)
(0 0.000692895 1.00003)
(0 0.000680019 1.00008)
(0 0.000656035 1.00014)
(0 0.000617041 1.00019)
(0 0.000564537 1.00024)
(0 0.000501881 1.00028)
(0 0.000430556 1.00032)
(0 0.000352884 1.00035)
(0 0.000276995 1.00038)
(0 0.000121917 1.0004)
(0 -2.86716e-05 1.00269)
(0 0.000118869 0.999327)
(0 0.000326716 0.999326)
(0 0.00044001 0.999412)
(0 0.000561168 0.999519)
(0 0.000655525 0.999593)
(0 0.000741765 0.999667)
(0 0.000797731 0.999737)
(0 0.000823289 0.999825)
(0 0.000826616 0.999924)
(0 0.0008061 1.00001)
(0 0.000777486 1.0001)
(0 0.000741022 1.00017)
(0 0.000691848 1.00024)
(0 0.000632065 1.00029)
(0 0.000561369 1.00034)
(0 0.00048089 1.00038)
(0 0.000393438 1.00042)
(0 0.000309063 1.00044)
(0 0.000136483 1.00047)
(0 6.42425e-05 0.995642)
(0 0.000277445 0.998885)
(0 0.000441332 0.999088)
(0 0.000591335 0.99921)
(0 0.000730014 0.999363)
(0 0.000799554 0.999503)
(0 0.000851095 0.99964)
(0 0.000892838 0.999755)
(0 0.000924125 0.99986)
(0 0.000930978 0.999949)
(0 0.00091642 1.00004)
(0 0.000886062 1.00013)
(0 0.000836957 1.00021)
(0 0.000775777 1.00028)
(0 0.000704743 1.00035)
(0 0.000622985 1.0004)
(0 0.000532231 1.00045)
(0 0.000434437 1.00048)
(0 0.000341595 1.00051)
(0 0.000151427 1.00054)
(0 -6.57378e-06 1.00214)
(0 0.000236899 0.998849)
(0 0.000530746 0.998909)
(0 0.000723161 0.999066)
(0 0.000892673 0.999227)
(0 0.000983392 0.999377)
(0 0.00104151 0.999539)
(0 0.00106364 0.999698)
(0 0.00106144 0.999841)
(0 0.00104672 0.999964)
(0 0.00102421 1.00008)
(0 0.000984113 1.00017)
(0 0.00092803 1.00026)
(0 0.000860051 1.00034)
(0 0.000778805 1.00041)
(0 0.000686348 1.00047)
(0 0.000584851 1.00052)
(0 0.000476169 1.00056)
(0 0.000374604 1.00059)
(0 0.000166556 1.00062)
(0 0.000150999 0.995439)
(0 0.00049212 0.99852)
(0 0.000717315 0.998771)
(0 0.000902643 0.998999)
(0 0.00105884 0.999197)
(0 0.0011448 0.999365)
(0 0.00120653 0.999526)
(0 0.00122643 0.99968)
(0 0.00121886 0.999829)
(0 0.00119481 0.999974)
(0 0.00115248 1.0001)
(0 0.00109394 1.00021)
(0 0.00102581 1.00031)
(0 0.000945512 1.0004)
(0 0.000852954 1.00047)
(0 0.000750201 1.00054)
(0 0.000637956 1.00059)
(0 0.000518356 1.00064)
(0 0.000408221 1.00067)
(0 0.000182115 1.0007)
(0 0.000171135 1.00149)
(0 0.000607884 0.998373)
(0 0.000943109 0.998582)
(0 0.00113157 0.998885)
(0 0.00126044 0.999144)
(0 0.00132695 0.99936)
(0 0.00137475 0.999545)
(0 0.00138467 0.999707)
(0 0.00137059 0.999862)
(0 0.00133425 1.00001)
(0 0.00127686 1.00014)
(0 0.00120713 1.00026)
(0 0.00112623 1.00037)
(0 0.00103265 1.00046)
(0 0.000928748 1.00054)
(0 0.000814684 1.00061)
(0 0.000691184 1.00067)
(0 0.000560651 1.00072)
(0 0.000441991 1.00075)
(0 0.000197772 1.00079)
(0 0.000421859 0.994899)
(0 0.0010286 0.99799)
(0 0.00127875 0.998359)
(0 0.00143461 0.998715)
(0 0.00151889 0.999027)
(0 0.00154266 0.999304)
(0 0.0015555 0.999544)
(0 0.00154687 0.999743)
(0 0.00152403 0.999916)
(0 0.0014768 1.00006)
(0 0.00140794 1.0002)
(0 0.00132466 1.00033)
(0 0.0012278 1.00044)
(0 0.00112067 1.00053)
(0 0.0010047 1.00062)
(0 0.000878955 1.00069)
(0 0.000744393 1.00075)
(0 0.000602856 1.0008)
(0 0.000475949 1.00084)
(0 0.000213731 1.00088)
(0 0.000581261 1.00059)
(0 0.00135556 0.997839)
(0 0.00163032 0.998219)
(0 0.00175222 0.998608)
(0 0.00181281 0.998928)
(0 0.00181589 0.999218)
(0 0.00179235 0.999488)
(0 0.00174074 0.999732)
(0 0.00167972 0.999945)
(0 0.00160816 1.00012)
(0 0.0015285 1.00027)
(0 0.00143568 1.0004)
(0 0.00132789 1.00051)
(0 0.00120959 1.00061)
(0 0.00108117 1.0007)
(0 0.000943265 1.00077)
(0 0.000797235 1.00084)
(0 0.000644515 1.00089)
(0 0.000509618 1.00093)
(0 0.000229664 1.00097)
(0 0.000972469 0.9943)
(0 0.00198691 0.997658)
(0 0.00205249 0.998173)
(0 0.0020744 0.998617)
(0 0.00207228 0.998969)
(0 0.00205355 0.999264)
(0 0.00202365 0.999518)
(0 0.00196105 0.999747)
(0 0.00187553 0.999959)
(0 0.0017742 1.00015)
(0 0.00166501 1.00033)
(0 0.00154738 1.00047)
(0 0.00142431 1.00059)
(0 0.00129444 1.0007)
(0 0.00115481 1.00079)
(0 0.00100634 1.00086)
(0 0.00084946 1.00093)
(0 0.000685607 1.00098)
(0 0.000543132 1.00102)
(0 0.000245768 1.00106)
(0 0.00132293 0.999615)
(0 0.00257589 0.997486)
(0 0.00252322 0.998067)
(0 0.00245315 0.998562)
(0 0.00238094 0.998969)
(0 0.00229868 0.999317)
(0 0.00221818 0.999605)
(0 0.00212878 0.999845)
(0 0.00203381 1.00005)
(0 0.0019253 1.00023)
(0 0.00180197 1.0004)
(0 0.00166835 1.00054)
(0 0.00152857 1.00067)
(0 0.0013815 1.00078)
(0 0.00122811 1.00087)
(0 0.00106806 1.00095)
(0 0.000900069 1.00102)
(0 0.000725462 1.00107)
(0 0.000575983 1.00111)
(0 0.000261734 1.00116)
)
;

boundaryField
{
    movingWall
    {
        type            zeroGradient;
    }
    leftSide
    {
        type            fixedValue;
        value           uniform (0 0 1);
    }
    rightSide
    {
        type            zeroGradient;
    }
    bottomWall
    {
        type            noSlip;
    }
    bottomWall2
    {
        type            zeroGradient;
    }
    frontAndBack
    {
        type            empty;
    }
}


// ************************************************************************* //
