/*--------------------------------*- C++ -*----------------------------------*\
  =========                 |
  \\      /  F ield         | OpenFOAM: The Open Source CFD Toolbox
   \\    /   O peration     | Website:  https://openfoam.org
    \\  /    A nd           | Version:  10
     \\/     M anipulation  |
\*---------------------------------------------------------------------------*/
FoamFile
{
    format      ascii;
    class       volScalarField;
    location    "0.6";
    object      p;
}
// * * * * * * * * * * * * * * * * * * * * * * * * * * * * * * * * * * * * * //

dimensions      [0 2 -2 0 0 0 0];

internalField   nonuniform List<scalar> 
1200
(
2.7847e-10
-0.00127899
-0.00188391
-0.00235661
-0.00276573
-0.00312506
-0.00344206
-0.00372287
-0.00397301
-0.00419776
-0.00440051
-0.0045839
-0.00475006
-0.00489996
-0.00503441
-0.00515348
-0.00525675
-0.00534328
-0.00541086
-0.00547613
-0.000335828
-0.00144913
-0.00197526
-0.00243758
-0.00285108
-0.0032185
-0.00354384
-0.00383226
-0.00408975
-0.00432056
-0.00452819
-0.00471569
-0.00488446
-0.00503613
-0.00517177
-0.0052917
-0.00539614
-0.00548404
-0.00555323
-0.00561984
-0.00121517
-0.00193466
-0.00229358
-0.00268746
-0.00306679
-0.00341342
-0.00372499
-0.00400533
-0.00425793
-0.00448583
-0.0046919
-0.0048779
-0.00504587
-0.00519704
-0.00533192
-0.0054512
-0.00555493
-0.00564237
-0.00571184
-0.00577912
-0.0023151
-0.00265909
-0.00281741
-0.00310619
-0.00341669
-0.00371341
-0.0039901
-0.00424508
-0.00447986
-0.0046957
-0.00489289
-0.00507261
-0.00523549
-0.00538243
-0.00551443
-0.00563154
-0.00573369
-0.00582002
-0.00588846
-0.00595547
-0.00336701
-0.00347924
-0.00347701
-0.0036548
-0.00387692
-0.00410601
-0.00433143
-0.00454889
-0.00475581
-0.00495
-0.00513152
-0.00529966
-0.00545402
-0.00559468
-0.00572108
-0.00583359
-0.0059322
-0.00601592
-0.00608285
-0.00614954
-0.00424957
-0.00427056
-0.00418501
-0.004275
-0.00441162
-0.00456774
-0.00473479
-0.00490674
-0.00507831
-0.00524614
-0.00540672
-0.00555816
-0.00569997
-0.00583099
-0.00595075
-0.00605839
-0.0061528
-0.00623297
-0.00629682
-0.00636219
-0.00494059
-0.00495781
-0.00486187
-0.00490313
-0.00497546
-0.00507034
-0.0051831
-0.00530875
-0.00544279
-0.00557992
-0.00571655
-0.00584965
-0.00597599
-0.00609436
-0.0062038
-0.00630344
-0.00639247
-0.00646913
-0.0065306
-0.00659479
-0.00547433
-0.0055202
-0.0054575
-0.00548579
-0.00552468
-0.00557744
-0.00564765
-0.00573538
-0.00583536
-0.0059432
-0.00605505
-0.00616727
-0.00627804
-0.00638444
-0.00648388
-0.00657501
-0.00665642
-0.00672694
-0.00678406
-0.00684645
-0.00591414
-0.00598536
-0.0059659
-0.0060064
-0.00603649
-0.00606887
-0.00611389
-0.00617291
-0.00624581
-0.00632929
-0.00641852
-0.00651099
-0.00660375
-0.00669485
-0.00678316
-0.0068661
-0.00694173
-0.00700801
-0.00706097
-0.00712035
-0.00630478
-0.00638431
-0.00639846
-0.00645825
-0.00649518
-0.00652604
-0.00656251
-0.00660862
-0.00666467
-0.00672905
-0.0068011
-0.00687776
-0.00695613
-0.00703425
-0.00710954
-0.00718112
-0.00724795
-0.00730798
-0.00735724
-0.00741494
-0.00669008
-0.00676379
-0.00679173
-0.00686533
-0.00691279
-0.00694941
-0.00698786
-0.00703104
-0.00707937
-0.00713396
-0.00719317
-0.00725627
-0.00732296
-0.00739082
-0.00745808
-0.0075225
-0.00758196
-0.0076352
-0.00767786
-0.00773123
-0.00708631
-0.00714719
-0.00717683
-0.00725429
-0.00730875
-0.0073553
-0.00740003
-0.0074452
-0.0074933
-0.00754361
-0.00759626
-0.00765143
-0.00770736
-0.00776432
-0.00782181
-0.0078783
-0.00793264
-0.00798242
-0.00802204
-0.00807261
-0.00750286
-0.00755131
-0.00757522
-0.00764677
-0.0077029
-0.00775437
-0.00780479
-0.00785552
-0.00790515
-0.00795488
-0.00800611
-0.00805773
-0.00811012
-0.00816237
-0.0082128
-0.00826164
-0.00830818
-0.00835115
-0.00838569
-0.00843348
-0.00794774
-0.00798673
-0.00800341
-0.00806587
-0.00811593
-0.00816601
-0.00821849
-0.00827048
-0.0083219
-0.00837266
-0.00842155
-0.00847045
-0.00851987
-0.00856873
-0.00861724
-0.00866378
-0.00870703
-0.00874645
-0.00877624
-0.00881963
-0.00841076
-0.00844387
-0.00845834
-0.00851072
-0.00855437
-0.00860163
-0.00865129
-0.0087031
-0.00875527
-0.00880561
-0.00885512
-0.00890317
-0.0089488
-0.0089937
-0.00903756
-0.00907985
-0.0091208
-0.00915857
-0.00918719
-0.00922933
-0.00890298
-0.008934
-0.00894498
-0.00898834
-0.00902394
-0.00906406
-0.0091109
-0.00916035
-0.00920877
-0.00925759
-0.00930604
-0.00935277
-0.00939884
-0.00944272
-0.00948357
-0.00952274
-0.00955949
-0.00959344
-0.00961889
-0.0096584
-0.00940518
-0.00943467
-0.00944861
-0.00948791
-0.00951529
-0.00955064
-0.0095931
-0.00963861
-0.00968633
-0.0097326
-0.0097762
-0.00982004
-0.00986342
-0.00990531
-0.00994669
-0.0099855
-0.010021
-0.0100537
-0.0100767
-0.0101138
-0.0099258
-0.00995537
-0.00997271
-0.0100092
-0.010035
-0.010065
-0.0100995
-0.0101407
-0.0101846
-0.0102286
-0.0102733
-0.0103154
-0.0103539
-0.0103923
-0.0104296
-0.0104656
-0.0105009
-0.0105333
-0.010556
-0.0105923
-0.0104784
-0.0105072
-0.0105245
-0.0105618
-0.0105857
-0.0106112
-0.0106422
-0.0106751
-0.0107098
-0.0107495
-0.0107909
-0.0108315
-0.0108726
-0.0109103
-0.0109442
-0.0109773
-0.0110083
-0.0110377
-0.0110592
-0.011094
-0.011038
-0.0110647
-0.0110874
-0.0111258
-0.0111504
-0.011178
-0.0112058
-0.0112335
-0.0112644
-0.0112956
-0.0113274
-0.0113643
-0.0114025
-0.0114403
-0.0114786
-0.0115131
-0.0115439
-0.0115723
-0.0115903
-0.0116224
-0.0116403
-0.0116674
-0.0116898
-0.0117272
-0.0117554
-0.0117816
-0.0118065
-0.0118335
-0.0118587
-0.0118828
-0.0119105
-0.0119379
-0.0119649
-0.0119967
-0.012029
-0.0120616
-0.0120954
-0.0121264
-0.0121471
-0.0121797
-0.0122614
-0.0122872
-0.0123096
-0.0123489
-0.0123766
-0.0124044
-0.0124349
-0.0124618
-0.0124857
-0.0125115
-0.0125355
-0.0125574
-0.0125828
-0.0126059
-0.0126279
-0.0126533
-0.0126781
-0.0127038
-0.0127238
-0.0127568
-0.0128746
-0.0128975
-0.0129226
-0.0129585
-0.0129866
-0.0130195
-0.0130507
-0.0130803
-0.0131118
-0.0131401
-0.0131646
-0.0131925
-0.0132177
-0.01324
-0.013265
-0.013286
-0.0133052
-0.0133254
-0.0133368
-0.013364
-0.0135501
-0.0135724
-0.0135909
-0.0136209
-0.0136471
-0.0136737
-0.0137019
-0.013733
-0.0137612
-0.0137863
-0.0138152
-0.0138407
-0.0138618
-0.0138871
-0.0139088
-0.0139291
-0.0139524
-0.0139734
-0.0139866
-0.0140136
-0.0142321
-0.0142527
-0.0142741
-0.0143071
-0.0143295
-0.014356
-0.0143886
-0.0144187
-0.0144457
-0.0144754
-0.0145012
-0.0145214
-0.0145466
-0.0145679
-0.0145856
-0.0146068
-0.0146248
-0.0146425
-0.0146553
-0.0146814
-0.0149442
-0.0149646
-0.0149897
-0.0150183
-0.0150408
-0.0150682
-0.0150935
-0.0151183
-0.0151493
-0.015178
-0.0152009
-0.0152292
-0.0152535
-0.0152726
-0.0152965
-0.0153157
-0.0153318
-0.0153502
-0.0153586
-0.0153804
-0.0157487
-0.0157682
-0.0157841
-0.0158098
-0.0158325
-0.0158504
-0.0158661
-0.0158867
-0.0159049
-0.0159199
-0.0159444
-0.0159684
-0.0159859
-0.0160091
-0.0160279
-0.016043
-0.0160621
-0.0160803
-0.0160912
-0.0161153
-0.0165512
-0.0165669
-0.0165862
-0.0166164
-0.0166342
-0.0166519
-0.0166751
-0.0166922
-0.0167012
-0.0167174
-0.0167338
-0.0167438
-0.0167636
-0.0167823
-0.0167955
-0.0168124
-0.0168265
-0.0168399
-0.0168486
-0.0168701
-0.0174015
-0.0174161
-0.0174397
-0.0174604
-0.0174746
-0.0174975
-0.0175159
-0.0175259
-0.0175419
-0.0175562
-0.0175578
-0.0175665
-0.0175766
-0.0175812
-0.0175938
-0.0176067
-0.0176174
-0.0176331
-0.0176403
-0.0176582
-0.0183802
-0.0183961
-0.0184025
-0.0184111
-0.0184225
-0.0184304
-0.0184304
-0.0184385
-0.0184486
-0.0184456
-0.0184482
-0.018453
-0.0184453
-0.0184426
-0.0184417
-0.0184385
-0.0184425
-0.0184508
-0.0184548
-0.0184738
-0.0193071
-0.0193171
-0.0193251
-0.019346
-0.0193539
-0.019352
-0.0193578
-0.0193659
-0.0193593
-0.0193574
-0.0193638
-0.0193571
-0.019353
-0.0193506
-0.0193394
-0.0193296
-0.019321
-0.0193138
-0.0193049
-0.0193142
-0.0202734
-0.020274
-0.0202861
-0.0202943
-0.0202848
-0.0202843
-0.0202885
-0.0202768
-0.0202661
-0.0202669
-0.0202548
-0.020244
-0.0202422
-0.0202337
-0.0202258
-0.02022
-0.020212
-0.0202071
-0.0201964
-0.0201999
-0.0215021
-0.0215026
-0.0214845
-0.0214505
-0.021419
-0.0213957
-0.0213577
-0.0213185
-0.0212943
-0.0212591
-0.0212206
-0.021195
-0.0211661
-0.0211387
-0.0211194
-0.0211032
-0.0210928
-0.0210888
-0.0210822
-0.0210894
-0.0227279
-0.0227199
-0.0226753
-0.0226338
-0.0225932
-0.0225372
-0.0224769
-0.0224324
-0.0223787
-0.0223159
-0.0222664
-0.0222149
-0.0221603
-0.0221136
-0.0220696
-0.0220306
-0.0219992
-0.0219757
-0.0219559
-0.0219555
-0.0238292
-0.0238006
-0.0237605
-0.0237234
-0.023658
-0.0235867
-0.0235326
-0.0234714
-0.0233952
-0.023331
-0.0232681
-0.0231987
-0.0231354
-0.0230745
-0.0230156
-0.0229619
-0.022912
-0.0228732
-0.0228383
-0.0228238
-0.0252306
-0.0251778
-0.0250874
-0.0249745
-0.0248485
-0.0247485
-0.0246504
-0.0245366
-0.0244351
-0.0243421
-0.024244
-0.0241535
-0.0240694
-0.0239887
-0.0239162
-0.0238501
-0.0237915
-0.023746
-0.0237053
-0.0236862
-0.0269851
-0.0269254
-0.026716
-0.0264874
-0.0262844
-0.0260999
-0.0259052
-0.025726
-0.0255651
-0.0254058
-0.0252578
-0.0251227
-0.0249956
-0.0248807
-0.0247782
-0.0246867
-0.0246092
-0.0245486
-0.0244959
-0.0244711
-0.0282874
-0.0282314
-0.027933
-0.0276765
-0.0274393
-0.0271927
-0.0269607
-0.0267495
-0.0265419
-0.0263464
-0.0261655
-0.0259941
-0.0258355
-0.0256916
-0.0255598
-0.0254423
-0.0253415
-0.02526
-0.0251887
-0.0251459
-0.0286632
-0.0286079
-0.0283389
-0.0281636
-0.0279268
-0.0277102
-0.0275093
-0.0273063
-0.0271111
-0.026926
-0.0267472
-0.0265765
-0.0264166
-0.0262675
-0.0261301
-0.0260055
-0.0258946
-0.0258065
-0.0257261
-0.0256649
-0.0283326
-0.028335
-0.0281292
-0.0281164
-0.0279109
-0.0278116
-0.0276492
-0.0274985
-0.0273464
-0.0271919
-0.0270387
-0.0268897
-0.0267452
-0.0266069
-0.0264788
-0.0263621
-0.0262515
-0.0261665
-0.0260896
-0.0260166
-0.00378088
-0.00374992
-0.00374245
-0.00375301
-0.00376363
-0.00377582
-0.00379055
-0.00380873
-0.00383086
-0.00385725
-0.00388745
-0.00392068
-0.00395637
-0.00399374
-0.00403178
-0.00406895
-0.00410355
-0.00413408
-0.00415913
-0.004177
-0.00375304
-0.00374661
-0.00374641
-0.00374879
-0.0037558
-0.00376719
-0.00378289
-0.00380261
-0.00382641
-0.00385453
-0.00388669
-0.00392236
-0.00396018
-0.00399892
-0.00403769
-0.00407549
-0.0041111
-0.00414302
-0.00416963
-0.00418923
-0.00371427
-0.0037252
-0.00373157
-0.00373118
-0.00373694
-0.00374935
-0.00376724
-0.00379048
-0.00381895
-0.00385138
-0.00388745
-0.00392682
-0.00396862
-0.00401147
-0.0040534
-0.00409313
-0.00412978
-0.00416243
-0.0041902
-0.00421179
-0.00366617
-0.00368565
-0.00369812
-0.00369916
-0.00370712
-0.00372267
-0.00374447
-0.00377271
-0.00380668
-0.00384554
-0.0038879
-0.00393224
-0.00397824
-0.00402521
-0.0040719
-0.00411646
-0.00415681
-0.00419159
-0.00422026
-0.00424291
-0.00360646
-0.00362893
-0.00364534
-0.00365311
-0.00366637
-0.00368702
-0.00371597
-0.0037518
-0.00379311
-0.00383916
-0.00388876
-0.00394067
-0.00399304
-0.00404453
-0.00409463
-0.00414242
-0.00418658
-0.00422531
-0.00425725
-0.00428239
-0.00353968
-0.00355823
-0.00357639
-0.0035929
-0.00361429
-0.00364308
-0.00368022
-0.00372519
-0.00377628
-0.0038313
-0.0038892
-0.00394888
-0.00400887
-0.00406763
-0.00412342
-0.00417515
-0.00422209
-0.00426324
-0.00429763
-0.00432566
-0.00346211
-0.00347612
-0.00349391
-0.00351873
-0.00355197
-0.00359258
-0.00364084
-0.00369656
-0.00375786
-0.00382313
-0.00389048
-0.00395847
-0.00402606
-0.00409177
-0.00415417
-0.00421173
-0.00426306
-0.00430741
-0.00434407
-0.00437426
-0.00337498
-0.00338302
-0.00339957
-0.00343332
-0.00348117
-0.00353712
-0.00359955
-0.0036677
-0.00374077
-0.00381692
-0.00389426
-0.00397139
-0.00404679
-0.0041195
-0.00418826
-0.00425146
-0.00430773
-0.00435598
-0.00439547
-0.00442825
-0.00327799
-0.00328153
-0.00329885
-0.00334155
-0.00340513
-0.00347862
-0.00355761
-0.00364055
-0.0037263
-0.00381404
-0.00390245
-0.00398916
-0.00407267
-0.00415199
-0.00422635
-0.00429499
-0.00435649
-0.00440929
-0.00445214
-0.00448771
-0.00316692
-0.00316905
-0.00319172
-0.00324795
-0.00332851
-0.00341983
-0.0035168
-0.00361614
-0.00371609
-0.00381594
-0.00391466
-0.00401135
-0.00410426
-0.00419135
-0.00427156
-0.00434439
-0.0044095
-0.00446598
-0.00451234
-0.00455131
-0.00303827
-0.00304313
-0.00307874
-0.00315399
-0.00325325
-0.00336353
-0.00347822
-0.00359406
-0.00370938
-0.00382228
-0.00393173
-0.00403714
-0.004138
-0.00423328
-0.00432117
-0.00440019
-0.00446961
-0.00452885
-0.00457715
-0.00461849
-0.0028879
-0.00290336
-0.00296424
-0.00306429
-0.0031837
-0.00331257
-0.00344511
-0.00357738
-0.00370721
-0.00383345
-0.00395452
-0.00406916
-0.00417706
-0.00427799
-0.00437166
-0.00445688
-0.00453194
-0.00459551
-0.00464661
-0.00469016
-0.00271025
-0.00274856
-0.00284929
-0.00298094
-0.0031227
-0.00326976
-0.00341913
-0.00356724
-0.00371148
-0.00385
-0.00398203
-0.00410668
-0.00422265
-0.00432975
-0.00442803
-0.00451717
-0.00459623
-0.00466364
-0.00471795
-0.00476448
-0.00249985
-0.00257904
-0.00273206
-0.00290086
-0.00306854
-0.00323484
-0.00340044
-0.00356385
-0.00372167
-0.00387178
-0.00401372
-0.004147
-0.00427127
-0.00438574
-0.00448977
-0.00458312
-0.00466524
-0.00473524
-0.00479181
-0.00484099
-0.00225402
-0.00240062
-0.00261451
-0.00282465
-0.0030207
-0.00320821
-0.00339107
-0.00356843
-0.00373864
-0.00389979
-0.00405083
-0.00419187
-0.00432304
-0.00444413
-0.00455438
-0.00465275
-0.0047385
-0.00481083
-0.0048688
-0.00492008
-0.00197166
-0.00221601
-0.00249691
-0.00275007
-0.00297676
-0.00318895
-0.00339038
-0.00358179
-0.00376316
-0.00393403
-0.00409403
-0.00424259
-0.00437995
-0.00450643
-0.00462164
-0.0047248
-0.00481468
-0.00488993
-0.00494953
-0.00500284
-0.00165131
-0.0020276
-0.00237909
-0.00267383
-0.00293497
-0.00317432
-0.00339623
-0.00360248
-0.00379483
-0.00397486
-0.00414291
-0.00429892
-0.00444266
-0.00457402
-0.00469318
-0.00479984
-0.00489304
-0.00497119
-0.00503283
-0.00508866
-0.00129506
-0.00183478
-0.00225628
-0.00259457
-0.00289215
-0.0031608
-0.00340475
-0.00362735
-0.00383194
-0.00402119
-0.00419701
-0.00435999
-0.00450994
-0.00464663
-0.00476979
-0.00487943
-0.00497508
-0.0050554
-0.00511875
-0.00517714
-0.000899691
-0.00163564
-0.00212644
-0.00251024
-0.00284561
-0.00314452
-0.00341218
-0.00365303
-0.00387143
-0.00407135
-0.00425523
-0.00442468
-0.0045804
-0.00472214
-0.00484962
-0.00496259
-0.00506061
-0.00514277
-0.00520739
-0.00526809
-0.000456513
-0.00142634
-0.00198808
-0.00241965
-0.00279337
-0.0031236
-0.00341649
-0.0036774
-0.00391173
-0.00412382
-0.00431694
-0.0044933
-0.00465421
-0.00480034
-0.00493166
-0.00504793
-0.00514865
-0.00523293
-0.00529879
-0.0053618
)
;

boundaryField
{
    movingWall
    {
        type            zeroGradient;
    }
    leftSide
    {
        type            zeroGradient;
    }
    rightSide
    {
        type            zeroGradient;
    }
    bottomWall
    {
        type            zeroGradient;
    }
    bottomWall2
    {
        type            zeroGradient;
    }
    frontAndBack
    {
        type            empty;
    }
}


// ************************************************************************* //
