/*--------------------------------*- C++ -*----------------------------------*\
  =========                 |
  \\      /  F ield         | OpenFOAM: The Open Source CFD Toolbox
   \\    /   O peration     | Website:  https://openfoam.org
    \\  /    A nd           | Version:  10
     \\/     M anipulation  |
\*---------------------------------------------------------------------------*/
FoamFile
{
    format      ascii;
    class       surfaceScalarField;
    location    "0.6";
    object      phi;
}
// * * * * * * * * * * * * * * * * * * * * * * * * * * * * * * * * * * * * * //

dimensions      [0 3 -1 0 0 0 0];

internalField   nonuniform List<scalar> 
2320
(
1.67486e-07
3.42396e-05
-3.44071e-05
1.46436e-07
3.579e-05
-3.57689e-05
1.37026e-07
3.71349e-05
-3.71255e-05
1.30261e-07
3.85319e-05
-3.85251e-05
1.24146e-07
3.99797e-05
-3.99736e-05
1.17965e-07
4.148e-05
-4.14738e-05
1.11766e-07
4.30344e-05
-4.30282e-05
1.0558e-07
4.46453e-05
-4.46391e-05
9.93385e-08
4.63148e-05
-4.63085e-05
9.29975e-08
4.80453e-05
-4.8039e-05
8.64315e-08
4.98392e-05
-4.98326e-05
7.95592e-08
5.16989e-05
-5.16921e-05
7.23942e-08
5.36269e-05
-5.36197e-05
6.49056e-08
5.56258e-05
-5.56183e-05
5.71138e-08
5.76982e-05
-5.76904e-05
4.9015e-08
5.98469e-05
-5.98388e-05
4.05714e-08
6.20748e-05
-6.20664e-05
3.1777e-08
6.43849e-05
-6.43761e-05
2.24254e-08
6.67802e-05
-6.67708e-05
6.92644e-05
-6.92549e-05
2.25722e-07
3.40139e-05
1.94517e-07
3.58212e-05
1.72949e-07
3.71565e-05
1.59459e-07
3.85454e-05
1.48803e-07
3.99904e-05
1.39237e-07
4.14896e-05
1.30398e-07
4.30433e-05
1.22001e-07
4.46537e-05
1.13854e-07
4.63229e-05
1.05766e-07
4.80534e-05
9.76551e-08
4.98473e-05
8.94781e-08
5.17071e-05
8.11152e-08
5.36353e-05
7.25087e-08
5.56344e-05
6.36116e-08
5.77071e-05
5.44057e-08
5.98561e-05
4.4913e-08
6.20843e-05
3.50744e-08
6.43947e-05
2.50636e-08
6.67902e-05
6.9275e-05
2.66863e-07
3.3747e-05
2.40913e-07
3.58471e-05
2.1578e-07
3.71816e-05
1.9416e-07
3.8567e-05
1.7651e-07
4.0008e-05
1.62729e-07
4.15033e-05
1.5074e-07
4.30553e-05
1.39802e-07
4.46646e-05
1.29504e-07
4.63332e-05
1.1963e-07
4.80633e-05
1.09953e-07
4.9857e-05
1.00279e-07
5.17168e-05
9.05733e-08
5.3645e-05
8.07763e-08
5.56442e-05
7.08182e-08
5.7717e-05
6.06288e-08
5.98663e-05
5.00934e-08
6.20949e-05
3.91935e-08
6.44056e-05
2.79583e-08
6.68014e-05
6.92867e-05
2.8868e-07
3.34583e-05
2.75309e-07
3.58605e-05
2.50028e-07
3.72069e-05
2.26334e-07
3.85907e-05
2.06169e-07
4.00282e-05
1.88478e-07
4.1521e-05
1.73445e-07
4.30703e-05
1.59949e-07
4.46781e-05
1.4734e-07
4.63458e-05
1.35334e-07
4.80753e-05
1.23744e-07
4.98686e-05
1.12467e-07
5.17281e-05
1.01267e-07
5.36562e-05
8.99831e-08
5.56555e-05
7.85807e-08
5.77285e-05
6.70006e-08
5.98779e-05
5.52448e-08
6.21066e-05
4.33064e-08
6.44176e-05
3.09949e-08
6.68137e-05
6.92996e-05
2.97312e-07
3.3161e-05
2.95121e-07
3.58627e-05
2.74699e-07
3.72273e-05
2.52606e-07
3.86128e-05
2.3182e-07
4.0049e-05
2.1283e-07
4.154e-05
1.95269e-07
4.30879e-05
1.79334e-07
4.4694e-05
1.64752e-07
4.63604e-05
1.51007e-07
4.8089e-05
1.37781e-07
4.98818e-05
1.24849e-07
5.1741e-05
1.12161e-07
5.36689e-05
9.96584e-08
5.5668e-05
8.71179e-08
5.7741e-05
7.43846e-08
5.98906e-05
6.1359e-08
6.21197e-05
4.79731e-08
6.44309e-05
3.42501e-08
6.68275e-05
6.93137e-05
3.02671e-07
3.28583e-05
3.07259e-07
3.58581e-05
2.92615e-07
3.7242e-05
2.74695e-07
3.86307e-05
2.55385e-07
4.00683e-05
2.36166e-07
4.15592e-05
2.17815e-07
4.31062e-05
2.00374e-07
4.47115e-05
1.83796e-07
4.6377e-05
1.68068e-07
4.81047e-05
1.53001e-07
4.98969e-05
1.38417e-07
5.17556e-05
1.24081e-07
5.36832e-05
1.09811e-07
5.56822e-05
9.56271e-08
5.77552e-05
8.14926e-08
5.99048e-05
6.72956e-08
6.21339e-05
5.28524e-08
6.44454e-05
3.7943e-08
6.68424e-05
6.93291e-05
3.09426e-07
3.25489e-05
3.14739e-07
3.58528e-05
3.03117e-07
3.72536e-05
2.8898e-07
3.86448e-05
2.7198e-07
4.00853e-05
2.53745e-07
4.15775e-05
2.35598e-07
4.31244e-05
2.17922e-07
4.47291e-05
2.00795e-07
4.63941e-05
1.8408e-07
4.81215e-05
1.67783e-07
4.99132e-05
1.51886e-07
5.17715e-05
1.36296e-07
5.36988e-05
1.20911e-07
5.56976e-05
1.05476e-07
5.77706e-05
8.98307e-08
5.99204e-05
7.39405e-08
6.21497e-05
5.77802e-08
6.44615e-05
4.14078e-08
6.68587e-05
6.93459e-05
3.20075e-07
3.22288e-05
3.25935e-07
3.58469e-05
3.14207e-07
3.72653e-05
3.00736e-07
3.86583e-05
2.86248e-07
4.00998e-05
2.7047e-07
4.15933e-05
2.53131e-07
4.31417e-05
2.35281e-07
4.4747e-05
2.1744e-07
4.6412e-05
1.99886e-07
4.8139e-05
1.82583e-07
4.99305e-05
1.6537e-07
5.17887e-05
1.48272e-07
5.37159e-05
1.31316e-07
5.57146e-05
1.14522e-07
5.77874e-05
9.78121e-08
5.99371e-05
8.09171e-08
6.21666e-05
6.36253e-08
6.44788e-05
4.57952e-08
6.68766e-05
6.93643e-05
3.3215e-07
3.18967e-05
3.39162e-07
3.58399e-05
3.25191e-07
3.72793e-05
3.11302e-07
3.86722e-05
2.97329e-07
4.01137e-05
2.82565e-07
4.1608e-05
2.669e-07
4.31574e-05
2.49999e-07
4.47639e-05
2.32459e-07
4.64295e-05
2.1464e-07
4.81568e-05
1.96769e-07
4.99483e-05
1.78984e-07
5.18065e-05
1.61144e-07
5.37337e-05
1.43077e-07
5.57326e-05
1.24745e-07
5.78057e-05
1.06166e-07
5.99557e-05
8.74439e-08
6.21854e-05
6.86067e-08
6.44977e-05
4.95437e-08
6.68956e-05
6.93838e-05
3.46175e-07
3.15505e-05
3.56903e-07
3.58292e-05
3.41091e-07
3.72951e-05
3.25832e-07
3.86874e-05
3.11131e-07
4.01284e-05
2.96014e-07
4.16231e-05
2.80271e-07
4.31731e-05
2.6385e-07
4.47803e-05
2.46489e-07
4.64469e-05
2.2844e-07
4.81749e-05
2.09972e-07
4.99668e-05
1.91211e-07
5.18252e-05
1.72359e-07
5.37526e-05
1.53517e-07
5.57515e-05
1.34536e-07
5.78247e-05
1.15227e-07
5.9975e-05
9.54335e-08
6.22052e-05
7.50452e-08
6.45181e-05
5.41571e-08
6.69165e-05
6.94052e-05
3.6095e-07
3.11896e-05
3.77045e-07
3.58131e-05
3.60162e-07
3.7312e-05
3.42893e-07
3.87047e-05
3.26434e-07
4.01449e-05
3.10329e-07
4.16392e-05
2.94108e-07
4.31893e-05
2.77488e-07
4.47969e-05
2.60287e-07
4.64641e-05
2.42353e-07
4.81928e-05
2.23711e-07
4.99855e-05
2.04485e-07
5.18445e-05
1.84714e-07
5.37724e-05
1.6443e-07
5.57718e-05
1.43828e-07
5.78453e-05
1.23038e-07
5.99958e-05
1.02021e-07
6.22262e-05
8.06752e-08
6.45394e-05
5.87604e-08
6.69384e-05
6.94279e-05
3.74633e-07
3.08149e-05
3.96209e-07
3.57915e-05
3.79687e-07
3.73285e-05
3.61339e-07
3.87231e-05
3.43368e-07
4.01629e-05
3.25929e-07
4.16567e-05
3.08714e-07
4.32065e-05
2.91338e-07
4.48143e-05
2.7358e-07
4.64818e-05
2.55232e-07
4.82112e-05
2.36231e-07
5.00045e-05
2.16639e-07
5.1864e-05
1.96501e-07
5.37925e-05
1.7582e-07
5.57925e-05
1.54499e-07
5.78666e-05
1.32456e-07
6.00178e-05
1.09776e-07
6.22489e-05
8.65338e-08
6.45627e-05
6.28655e-08
6.69621e-05
6.9452e-05
3.89726e-07
3.04252e-05
4.18316e-07
3.57629e-05
4.02561e-07
3.73443e-05
3.83454e-07
3.87422e-05
3.64143e-07
4.01822e-05
3.45139e-07
4.16757e-05
3.26314e-07
4.32254e-05
3.07534e-07
4.48331e-05
2.88543e-07
4.65008e-05
2.69202e-07
4.82305e-05
2.4934e-07
5.00243e-05
2.28815e-07
5.18846e-05
2.07638e-07
5.38137e-05
1.85917e-07
5.58142e-05
1.63702e-07
5.78889e-05
1.40995e-07
6.00405e-05
1.17665e-07
6.22722e-05
9.35366e-08
6.45868e-05
6.85039e-08
6.69871e-05
6.94779e-05
4.02835e-07
3.00224e-05
4.37194e-07
3.57286e-05
4.22917e-07
3.73585e-05
4.04568e-07
3.87605e-05
3.85336e-07
4.02014e-05
3.65573e-07
4.16955e-05
3.45594e-07
4.32454e-05
3.25421e-07
4.48533e-05
3.05174e-07
4.65211e-05
2.84752e-07
4.82509e-05
2.6391e-07
5.00452e-05
2.42512e-07
5.1906e-05
2.20446e-07
5.38357e-05
1.9758e-07
5.5837e-05
1.73916e-07
5.79125e-05
1.49542e-07
6.00649e-05
1.24486e-07
6.22972e-05
9.88219e-08
6.46124e-05
7.25273e-08
6.70134e-05
6.9505e-05
4.17317e-07
2.9605e-05
4.57951e-07
3.56879e-05
4.4421e-07
3.73723e-05
4.25686e-07
3.8779e-05
4.06116e-07
4.0221e-05
3.85703e-07
4.17159e-05
3.64719e-07
4.32663e-05
3.43474e-07
4.48745e-05
3.21945e-07
4.65426e-05
3.00082e-07
4.82728e-05
2.78019e-07
5.00672e-05
2.55613e-07
5.19284e-05
2.32641e-07
5.38587e-05
2.09013e-07
5.58607e-05
1.84664e-07
5.79369e-05
1.59414e-07
6.00902e-05
1.33278e-07
6.23234e-05
1.06206e-07
6.46395e-05
7.81814e-08
6.70415e-05
6.95339e-05
4.32419e-07
2.91726e-05
4.80239e-07
3.56401e-05
4.67476e-07
3.7385e-05
4.49208e-07
3.87973e-05
4.29468e-07
4.02407e-05
4.08636e-07
4.17367e-05
3.87028e-07
4.32879e-05
3.6483e-07
4.48967e-05
3.42061e-07
4.65654e-05
3.18856e-07
4.8296e-05
2.95104e-07
5.0091e-05
2.70852e-07
5.19526e-05
2.46169e-07
5.38834e-05
2.20994e-07
5.58858e-05
1.95095e-07
5.79628e-05
1.68459e-07
6.01168e-05
1.40991e-07
6.23508e-05
1.12579e-07
6.46679e-05
8.32474e-08
6.70708e-05
6.95642e-05
4.45787e-07
2.87268e-05
4.98832e-07
3.55871e-05
4.8597e-07
3.73979e-05
4.67317e-07
3.8816e-05
4.47645e-07
4.02604e-05
4.27038e-07
4.17573e-05
4.05392e-07
4.33096e-05
3.82763e-07
4.49193e-05
3.59579e-07
4.65885e-05
3.35799e-07
4.83198e-05
3.11359e-07
5.01154e-05
2.86213e-07
5.19778e-05
2.60359e-07
5.39092e-05
2.33727e-07
5.59125e-05
2.06463e-07
5.799e-05
1.78503e-07
6.01448e-05
1.49611e-07
6.23797e-05
1.19736e-07
6.46978e-05
8.87818e-08
6.71017e-05
6.95962e-05
4.62995e-07
2.82638e-05
5.2518e-07
3.55249e-05
5.12858e-07
3.74102e-05
4.9335e-07
3.88355e-05
4.72805e-07
4.02809e-05
4.51416e-07
4.17787e-05
4.28931e-07
4.33321e-05
4.05406e-07
4.49429e-05
3.80742e-07
4.66132e-05
3.5525e-07
4.83453e-05
3.29288e-07
5.01414e-05
3.02863e-07
5.20042e-05
2.75691e-07
5.39364e-05
2.47719e-07
5.59405e-05
2.18859e-07
5.80189e-05
1.88996e-07
6.01746e-05
1.58363e-07
6.24104e-05
1.26879e-07
6.47293e-05
9.43791e-08
6.71342e-05
6.96298e-05
4.77789e-07
2.77861e-05
5.46693e-07
3.5456e-05
5.34554e-07
3.74224e-05
5.14075e-07
3.88559e-05
4.92652e-07
4.03024e-05
4.70613e-07
4.18007e-05
4.48011e-07
4.33547e-05
4.24503e-07
4.49664e-05
3.99876e-07
4.66378e-05
3.74076e-07
4.83711e-05
3.47037e-07
5.01684e-05
3.18976e-07
5.20323e-05
2.90337e-07
5.39651e-05
2.61201e-07
5.59696e-05
2.31189e-07
5.80489e-05
2.0032e-07
6.02055e-05
1.68302e-07
6.24424e-05
1.35018e-07
6.47626e-05
1.00684e-07
6.71686e-05
6.96652e-05
4.93726e-07
2.72923e-05
5.71539e-07
3.53782e-05
5.60396e-07
3.74335e-05
5.39416e-07
3.88769e-05
5.17269e-07
4.03245e-05
4.94372e-07
4.18236e-05
4.70559e-07
4.33785e-05
4.45811e-07
4.49911e-05
4.20292e-07
4.66633e-05
3.9373e-07
4.83976e-05
3.66024e-07
5.01961e-05
3.37071e-07
5.20612e-05
3.06905e-07
5.39952e-05
2.75491e-07
5.6001e-05
2.43467e-07
5.80809e-05
2.10769e-07
6.02382e-05
1.77194e-07
6.2476e-05
1.42722e-07
6.4797e-05
1.06867e-07
6.72044e-05
6.97025e-05
5.12343e-07
2.678e-05
6.00808e-07
3.52897e-05
5.9023e-07
3.74441e-05
5.67647e-07
3.88995e-05
5.43552e-07
4.03486e-05
5.18889e-07
4.18483e-05
4.93563e-07
4.34038e-05
4.67681e-07
4.5017e-05
4.40813e-07
4.66902e-05
4.13105e-07
4.84253e-05
3.84498e-07
5.02247e-05
3.55009e-07
5.20907e-05
3.2416e-07
5.40261e-05
2.92076e-07
5.60331e-05
2.58515e-07
5.81145e-05
2.2344e-07
6.02733e-05
1.87464e-07
6.25119e-05
1.50585e-07
6.48339e-05
1.12962e-07
6.72421e-05
6.97411e-05
5.27796e-07
2.62522e-05
6.2481e-07
3.51927e-05
6.16059e-07
3.74528e-05
5.93448e-07
3.89221e-05
5.68869e-07
4.03732e-05
5.43152e-07
4.1874e-05
5.16796e-07
4.34302e-05
4.89504e-07
4.50443e-05
4.61531e-07
4.67182e-05
4.32595e-07
4.84543e-05
4.02652e-07
5.02547e-05
3.71498e-07
5.21219e-05
3.3948e-07
5.40581e-05
3.06579e-07
5.6066e-05
2.72325e-07
5.81487e-05
2.36957e-07
6.03086e-05
1.99942e-07
6.25489e-05
1.61149e-07
6.48727e-05
1.20858e-07
6.72823e-05
6.97827e-05
5.46514e-07
2.57057e-05
6.55219e-07
3.5084e-05
6.46895e-07
3.74612e-05
6.22632e-07
3.89464e-05
5.963e-07
4.03995e-05
5.69196e-07
4.19011e-05
5.40983e-07
4.34584e-05
5.11965e-07
4.50733e-05
4.82149e-07
4.6748e-05
4.51596e-07
4.84848e-05
4.20222e-07
5.0286e-05
3.87902e-07
5.21542e-05
3.54555e-07
5.40914e-05
3.19685e-07
5.61009e-05
2.83908e-07
5.81845e-05
2.46997e-07
6.03455e-05
2.08768e-07
6.25872e-05
1.69438e-07
6.4912e-05
1.28408e-07
6.73234e-05
6.98256e-05
5.65772e-07
2.51399e-05
6.88193e-07
3.49616e-05
6.83137e-07
3.74662e-05
6.58832e-07
3.89707e-05
6.31639e-07
4.04267e-05
6.03145e-07
4.19296e-05
5.73633e-07
4.34879e-05
5.43238e-07
4.51037e-05
5.11664e-07
4.67796e-05
4.79054e-07
4.85174e-05
4.45305e-07
5.03198e-05
4.10757e-07
5.21887e-05
3.7489e-07
5.41273e-05
3.38015e-07
5.61377e-05
2.99832e-07
5.82227e-05
2.59972e-07
6.03854e-05
2.19025e-07
6.26281e-05
1.76755e-07
6.49543e-05
1.3335e-07
6.73668e-05
6.987e-05
5.80016e-07
2.45599e-05
7.0982e-07
3.48318e-05
7.04805e-07
3.74712e-05
6.79185e-07
3.89963e-05
6.51156e-07
4.04547e-05
6.21963e-07
4.19588e-05
5.91998e-07
4.35179e-05
5.60856e-07
4.51348e-05
5.28946e-07
4.68115e-05
4.95944e-07
4.85504e-05
4.62018e-07
5.03537e-05
4.26632e-07
5.22241e-05
3.90141e-07
5.41638e-05
3.52769e-07
5.61751e-05
3.13999e-07
5.82615e-05
2.74258e-07
6.04251e-05
2.32951e-07
6.26694e-05
1.89667e-07
6.49976e-05
1.44465e-07
6.7412e-05
6.99172e-05
6.02759e-07
2.39571e-05
7.52113e-07
3.46824e-05
7.51329e-07
3.7472e-05
7.2544e-07
3.90222e-05
6.95831e-07
4.04843e-05
6.64976e-07
4.19897e-05
6.32354e-07
4.35505e-05
5.98342e-07
4.51689e-05
5.62898e-07
4.68469e-05
5.26408e-07
4.85869e-05
4.88829e-07
5.03913e-05
4.50236e-07
5.22627e-05
4.10914e-07
5.42031e-05
3.6999e-07
5.6216e-05
3.28028e-07
5.83034e-05
2.84921e-07
6.04683e-05
2.40517e-07
6.27138e-05
1.95219e-07
6.50429e-05
1.48555e-07
6.74586e-05
6.99654e-05
6.1917e-07
2.3338e-05
7.78533e-07
3.4523e-05
7.78482e-07
3.74721e-05
7.50497e-07
3.90502e-05
7.19153e-07
4.05157e-05
6.86895e-07
4.20219e-05
6.53944e-07
4.35834e-05
6.20213e-07
4.52026e-05
5.85139e-07
4.6882e-05
5.48649e-07
4.86234e-05
5.10493e-07
5.04295e-05
4.7155e-07
5.23016e-05
4.31029e-07
5.42436e-05
3.89407e-07
5.62576e-05
3.46618e-07
5.83462e-05
3.02039e-07
6.05128e-05
2.56045e-07
6.27598e-05
2.08394e-07
6.50905e-05
1.59271e-07
6.75078e-05
7.00159e-05
6.34519e-07
2.27034e-05
8.10097e-07
3.43475e-05
8.15391e-07
3.74668e-05
7.87929e-07
3.90776e-05
7.55497e-07
4.05481e-05
7.21044e-07
4.20564e-05
6.85825e-07
4.36187e-05
6.49289e-07
4.52391e-05
6.11955e-07
4.69193e-05
5.73102e-07
4.86623e-05
5.33423e-07
5.04691e-05
4.91848e-07
5.23432e-05
4.48705e-07
5.42868e-05
4.04751e-07
5.63016e-05
3.594e-07
5.83916e-05
3.13136e-07
6.05591e-05
2.65739e-07
6.28072e-05
2.16712e-07
6.51396e-05
1.65874e-07
6.75586e-05
7.00686e-05
6.57862e-07
2.20456e-05
8.47479e-07
3.41579e-05
8.51511e-07
3.74627e-05
8.2072e-07
3.91084e-05
7.8502e-07
4.05838e-05
7.49019e-07
4.20924e-05
7.11916e-07
4.36558e-05
6.74221e-07
4.52768e-05
6.35264e-07
4.69583e-05
5.95934e-07
4.87016e-05
5.55457e-07
5.05096e-05
5.13328e-07
5.23854e-05
4.70252e-07
5.43299e-05
4.24984e-07
5.63469e-05
3.77881e-07
5.84387e-05
3.29422e-07
6.06076e-05
2.7936e-07
6.28573e-05
2.28213e-07
6.51907e-05
1.7594e-07
6.76109e-05
7.01226e-05
6.73794e-07
2.13718e-05
8.87459e-07
3.39442e-05
9.01633e-07
3.74486e-05
8.70942e-07
3.91391e-05
8.332e-07
4.06216e-05
7.93259e-07
4.21323e-05
7.52129e-07
4.36969e-05
7.09549e-07
4.53194e-05
6.66276e-07
4.70016e-05
6.22345e-07
4.87455e-05
5.77095e-07
5.05549e-05
5.32018e-07
5.24304e-05
4.86081e-07
5.43758e-05
4.39005e-07
5.63939e-05
3.91119e-07
5.84866e-05
3.41418e-07
6.06573e-05
2.89934e-07
6.29088e-05
2.36537e-07
6.52441e-05
1.81209e-07
6.76662e-05
7.01791e-05
6.78772e-07
2.0693e-05
8.9256e-07
3.37304e-05
9.03981e-07
3.74371e-05
8.72732e-07
3.91704e-05
8.35673e-07
4.06586e-05
7.97414e-07
4.21706e-05
7.5808e-07
4.37362e-05
7.17811e-07
4.53597e-05
6.76817e-07
4.70426e-05
6.33688e-07
4.87887e-05
5.89772e-07
5.05988e-05
5.44685e-07
5.24755e-05
4.98037e-07
5.44224e-05
4.51019e-07
5.6441e-05
4.02982e-07
5.85346e-05
3.53684e-07
6.07066e-05
3.02981e-07
6.29595e-05
2.50298e-07
6.52968e-05
1.95364e-07
6.77211e-05
7.02367e-05
7.03502e-07
1.99895e-05
9.49663e-07
3.34842e-05
9.69052e-07
3.74177e-05
9.34879e-07
3.92046e-05
8.91543e-07
4.07019e-05
8.46221e-07
4.22159e-05
7.99812e-07
4.37826e-05
7.53172e-07
4.54063e-05
7.0523e-07
4.70905e-05
6.569e-07
4.8837e-05
6.0835e-07
5.06473e-05
5.58309e-07
5.25256e-05
5.07764e-07
5.4473e-05
4.56393e-07
5.64923e-05
4.03968e-07
5.8587e-05
3.5112e-07
6.07594e-05
2.9782e-07
6.30128e-05
2.44056e-07
6.53506e-05
1.89533e-07
6.77757e-05
7.02924e-05
7.08125e-07
1.92814e-05
9.62131e-07
3.32302e-05
9.83373e-07
3.73965e-05
9.47931e-07
3.924e-05
9.04353e-07
4.07455e-05
8.59946e-07
4.22603e-05
8.15465e-07
4.38271e-05
7.69953e-07
4.54518e-05
7.23482e-07
4.7137e-05
6.76986e-07
4.88835e-05
6.29016e-07
5.06953e-05
5.80313e-07
5.25743e-05
5.30899e-07
5.45224e-05
4.79902e-07
5.65433e-05
4.27816e-07
5.86391e-05
3.7453e-07
6.08127e-05
3.19769e-07
6.30675e-05
2.63893e-07
6.54064e-05
2.0692e-07
6.78326e-05
7.03507e-05
6.87601e-07
1.85938e-05
9.50114e-07
3.29677e-05
9.76887e-07
3.73697e-05
9.4107e-07
3.92758e-05
8.94754e-07
4.07918e-05
8.46982e-07
4.23081e-05
7.98902e-07
4.38752e-05
7.5029e-07
4.55004e-05
7.02479e-07
4.71848e-05
6.54175e-07
4.89318e-05
6.05632e-07
5.07438e-05
5.57478e-07
5.26224e-05
5.08752e-07
5.45711e-05
4.59868e-07
5.65922e-05
4.1058e-07
5.86884e-05
3.6019e-07
6.08631e-05
3.08891e-07
6.31188e-05
2.55995e-07
6.54593e-05
2.01179e-07
6.78875e-05
7.0407e-05
6.72478e-07
1.79213e-05
9.33123e-07
3.27071e-05
9.58672e-07
3.73442e-05
9.23829e-07
3.93107e-05
8.79302e-07
4.08364e-05
8.34337e-07
4.2353e-05
7.88536e-07
4.3921e-05
7.43299e-07
4.55457e-05
6.97549e-07
4.72305e-05
6.50999e-07
4.89783e-05
6.04577e-07
5.07903e-05
5.57461e-07
5.26695e-05
5.09889e-07
5.46187e-05
4.62024e-07
5.66401e-05
4.13416e-07
5.8737e-05
3.64296e-07
6.09122e-05
3.14398e-07
6.31687e-05
2.63639e-07
6.55101e-05
2.11778e-07
6.79393e-05
7.04607e-05
6.66587e-07
1.72547e-05
9.39584e-07
3.24341e-05
9.65214e-07
3.73186e-05
9.2098e-07
3.93549e-05
8.6656e-07
4.08908e-05
8.10687e-07
4.24089e-05
7.57253e-07
4.39744e-05
7.05278e-07
4.55976e-05
6.54347e-07
4.72815e-05
6.05137e-07
4.90275e-05
5.56933e-07
5.08385e-05
5.09459e-07
5.2717e-05
4.62916e-07
5.46652e-05
4.16836e-07
5.66862e-05
3.7113e-07
5.87827e-05
3.25797e-07
6.09575e-05
2.80738e-07
6.32138e-05
2.35407e-07
6.55554e-05
1.89827e-07
6.79849e-05
7.05069e-05
5.52076e-07
1.67026e-05
8.09104e-07
3.2177e-05
8.48067e-07
3.72796e-05
8.20762e-07
3.93822e-05
7.79009e-07
4.09325e-05
7.37765e-07
4.24502e-05
6.962e-07
4.4016e-05
6.54757e-07
4.56391e-05
6.13692e-07
4.73225e-05
5.72819e-07
4.90684e-05
5.31934e-07
5.08794e-05
4.91334e-07
5.27576e-05
4.50771e-07
5.47058e-05
4.09963e-07
5.6727e-05
3.69146e-07
5.88235e-05
3.28158e-07
6.09985e-05
2.86388e-07
6.32556e-05
2.44424e-07
6.55974e-05
2.02068e-07
6.80272e-05
7.055e-05
3.51762e-07
1.63509e-05
5.16091e-07
3.20127e-05
5.43484e-07
3.72522e-05
5.27435e-07
3.93982e-05
5.05216e-07
4.09548e-05
4.81387e-07
4.2474e-05
4.57285e-07
4.40401e-05
4.33554e-07
4.56628e-05
4.09699e-07
4.73464e-05
3.85938e-07
4.90922e-05
3.62061e-07
5.09032e-05
3.38176e-07
5.27815e-05
3.14063e-07
5.47299e-05
2.89889e-07
5.67511e-05
2.65403e-07
5.8848e-05
2.40586e-07
6.10233e-05
2.1572e-07
6.32804e-05
1.89959e-07
6.56232e-05
1.63743e-07
6.80535e-05
7.05761e-05
1.1231e-07
1.62386e-05
2.07773e-07
3.19173e-05
2.49393e-07
3.72106e-05
2.68763e-07
3.93789e-05
2.82186e-07
4.09413e-05
2.88374e-07
4.24678e-05
2.92367e-07
4.40361e-05
2.92057e-07
4.56631e-05
2.89241e-07
4.73492e-05
2.83565e-07
4.90979e-05
2.75759e-07
5.0911e-05
2.6584e-07
5.27914e-05
2.5413e-07
5.47416e-05
2.40924e-07
5.67643e-05
2.26445e-07
5.88625e-05
2.10534e-07
6.10392e-05
1.93896e-07
6.32971e-05
1.76667e-07
6.56404e-05
1.5819e-07
6.80719e-05
7.05937e-05
-1.49906e-08
-7.36875e-09
2.36187e-09
1.3914e-08
2.51662e-08
3.54909e-08
4.4698e-08
5.34164e-08
6.09939e-08
6.785e-08
7.39415e-08
7.92123e-08
8.38122e-08
8.78079e-08
9.11437e-08
9.4047e-08
9.65027e-08
9.85228e-08
1.00462e-07
2.44037e-09
3.45858e-05
2.49427e-09
3.587e-05
1.51413e-09
3.72038e-05
1.13004e-09
3.85854e-05
1.04798e-09
4.00188e-05
1.1066e-09
4.15055e-05
1.20507e-09
4.30476e-05
1.30643e-09
4.46471e-05
1.4132e-09
4.63059e-05
1.52318e-09
4.80264e-05
1.62398e-09
4.98109e-05
1.65648e-09
5.16617e-05
1.60584e-09
5.35812e-05
1.50814e-09
5.55721e-05
1.40661e-09
5.76369e-05
1.31441e-09
5.97784e-05
1.20099e-09
6.19995e-05
1.02125e-09
6.43031e-05
7.3512e-10
6.66924e-05
6.91705e-05
-8.49557e-09
3.45874e-05
-4.60848e-09
3.58661e-05
-4.915e-11
3.71992e-05
1.2186e-09
3.85842e-05
1.64429e-09
4.00183e-05
2.07106e-09
4.15051e-05
2.63948e-09
4.30471e-05
3.27383e-09
4.46464e-05
3.84551e-09
4.63054e-05
4.29037e-09
4.8026e-05
4.59044e-09
4.98106e-05
4.80038e-09
5.16615e-05
4.91558e-09
5.35811e-05
4.83314e-09
5.55722e-05
4.49906e-09
5.76372e-05
3.93833e-09
5.97789e-05
3.24902e-09
6.20001e-05
2.52698e-09
6.43038e-05
1.69463e-09
6.66932e-05
6.91714e-05
3.07789e-09
3.45865e-05
2.52008e-09
3.58667e-05
1.91815e-09
3.71998e-05
3.0113e-09
3.85831e-05
3.75449e-09
4.00176e-05
4.40423e-09
4.15045e-05
5.1252e-09
4.30463e-05
5.81481e-09
4.46457e-05
6.49891e-09
4.63047e-05
7.1083e-09
4.80254e-05
7.52517e-09
4.98101e-05
7.69168e-09
5.16613e-05
7.61354e-09
5.35812e-05
7.38349e-09
5.55724e-05
7.01591e-09
5.76376e-05
6.43521e-09
5.97795e-05
5.57392e-09
6.2001e-05
4.42852e-09
6.4305e-05
2.97806e-09
6.66947e-05
6.9173e-05
-4.78519e-09
3.45859e-05
-2.9228e-09
3.58648e-05
4.55912e-10
3.71964e-05
2.30426e-09
3.85812e-05
4.05083e-09
4.00159e-05
5.52175e-09
4.1503e-05
6.91803e-09
4.30449e-05
8.18924e-09
4.46445e-05
9.23471e-09
4.63036e-05
1.00003e-08
4.80246e-05
1.0558e-08
4.98096e-05
1.08587e-08
5.1661e-05
1.07958e-08
5.35813e-05
1.0314e-08
5.55729e-05
9.46146e-09
5.76384e-05
8.37823e-09
5.97806e-05
7.1279e-09
6.20023e-05
5.64376e-09
6.43065e-05
3.97664e-09
6.66963e-05
6.91749e-05
5.77497e-09
3.45839e-05
4.63502e-09
3.58659e-05
2.75777e-09
3.71983e-05
4.04913e-09
3.85799e-05
6.07806e-09
4.00138e-05
7.99518e-09
4.15011e-05
9.58911e-09
4.30433e-05
1.1012e-08
4.4643e-05
1.21935e-08
4.63024e-05
1.30639e-08
4.80237e-05
1.3546e-08
4.98091e-05
1.36831e-08
5.16608e-05
1.35534e-08
5.35814e-05
1.31147e-08
5.55733e-05
1.22668e-08
5.76393e-05
1.09421e-08
5.97819e-05
9.17613e-09
6.2004e-05
7.08265e-09
6.43086e-05
4.85952e-09
6.66986e-05
6.91773e-05
-1.35599e-09
3.45828e-05
6.6119e-10
3.58639e-05
2.76256e-09
3.71962e-05
4.72535e-09
3.8578e-05
7.31642e-09
4.00112e-05
1.007e-08
4.14983e-05
1.23268e-08
4.30411e-05
1.40971e-08
4.46413e-05
1.54241e-08
4.63011e-05
1.63763e-08
4.80228e-05
1.69133e-08
4.98086e-05
1.69622e-08
5.16608e-05
1.64929e-08
5.35819e-05
1.55989e-08
5.55742e-05
1.43764e-08
5.76405e-05
1.28442e-08
5.97835e-05
1.09544e-08
6.20059e-05
8.68305e-09
6.43108e-05
6.06517e-09
6.67012e-05
6.91802e-05
7.06796e-09
3.45806e-05
6.5778e-09
3.58644e-05
5.89276e-09
3.71969e-05
7.62469e-09
3.85762e-05
1.02267e-08
4.00086e-05
1.29945e-08
4.14955e-05
1.55065e-08
4.30386e-05
1.74963e-08
4.46393e-05
1.89286e-08
4.62997e-05
1.98105e-08
4.80219e-05
2.01814e-08
4.98082e-05
2.00893e-08
5.16609e-05
1.9564e-08
5.35824e-05
1.85429e-08
5.55752e-05
1.69984e-08
5.76421e-05
1.49726e-08
5.97855e-05
1.25439e-08
6.20083e-05
9.82375e-09
6.43135e-05
6.87445e-09
6.67041e-05
6.91834e-05
8.75729e-10
3.45792e-05
3.72951e-09
3.58615e-05
7.39281e-09
3.71932e-05
1.02488e-08
3.85734e-05
1.33258e-08
4.00056e-05
1.6378e-08
4.14925e-05
1.90933e-08
4.30359e-05
2.11944e-08
4.46372e-05
2.26723e-08
4.62982e-05
2.35373e-08
4.8021e-05
2.37847e-08
4.9808e-05
2.34223e-08
5.16613e-05
2.24846e-08
5.35833e-05
2.1079e-08
5.55767e-05
1.92729e-08
5.76439e-05
1.70512e-08
5.97877e-05
1.44177e-08
6.2011e-05
1.13562e-08
6.43166e-05
7.94271e-09
6.67075e-05
6.91871e-05
6.60296e-09
3.45776e-05
8.48288e-09
3.58597e-05
1.07103e-08
3.7191e-05
1.41985e-08
3.85699e-05
1.74771e-08
4.00023e-05
2.0423e-08
4.14895e-05
2.3024e-08
4.30333e-05
2.51035e-08
4.46351e-05
2.64978e-08
4.62968e-05
2.71653e-08
4.80204e-05
2.72096e-08
4.98079e-05
2.66754e-08
5.16618e-05
2.5574e-08
5.35844e-05
2.38862e-08
5.55783e-05
2.16317e-08
5.76461e-05
1.89214e-08
5.97904e-05
1.58416e-08
6.20141e-05
1.24434e-08
6.432e-05
8.77214e-09
6.67112e-05
6.91911e-05
1.72208e-09
3.45761e-05
6.39689e-09
3.5855e-05
1.30627e-08
3.71843e-05
1.80982e-08
3.85649e-05
2.20088e-08
3.99984e-05
2.51204e-08
4.14864e-05
2.75679e-08
4.30308e-05
2.94124e-08
4.46333e-05
3.06372e-08
4.62956e-05
3.11344e-08
4.80199e-05
3.08574e-08
4.98082e-05
2.99026e-08
5.16627e-05
2.83913e-08
5.35859e-05
2.6406e-08
5.55803e-05
2.39805e-08
5.76485e-05
2.10721e-08
5.97933e-05
1.76639e-08
6.20175e-05
1.38539e-08
6.43238e-05
9.69322e-09
6.67154e-05
6.91955e-05
6.83084e-09
3.45742e-05
1.13818e-08
3.58504e-05
1.7346e-08
3.71784e-05
2.2939e-08
3.85593e-05
2.71449e-08
3.99942e-05
3.01602e-08
4.14834e-05
3.23452e-08
4.30286e-05
3.3864e-08
4.46317e-05
3.46915e-08
4.62948e-05
3.48355e-08
4.80197e-05
3.43206e-08
4.98087e-05
3.31254e-08
5.16639e-05
3.12591e-08
5.35878e-05
2.88044e-08
5.55828e-05
2.58854e-08
5.76515e-05
2.26009e-08
5.97966e-05
1.89757e-08
6.20211e-05
1.50068e-08
6.43278e-05
1.06246e-08
6.67198e-05
6.92003e-05
3.05247e-09
3.45719e-05
1.17076e-08
3.58418e-05
2.11059e-08
3.7169e-05
2.7781e-08
3.85526e-05
3.24857e-08
3.99895e-05
3.55417e-08
4.14804e-05
3.75181e-08
4.30267e-05
3.86845e-08
4.46306e-05
3.90827e-08
4.62944e-05
3.87787e-08
4.802e-05
3.778e-08
4.98097e-05
3.61231e-08
5.16656e-05
3.39074e-08
5.359e-05
3.12257e-08
5.55855e-05
2.80726e-08
5.76546e-05
2.44612e-08
5.98002e-05
2.04541e-08
6.20251e-05
1.60576e-08
6.43322e-05
1.13004e-08
6.67245e-05
6.92054e-05
9.07075e-09
3.45681e-05
1.92351e-08
3.58316e-05
2.69384e-08
3.71613e-05
3.34658e-08
3.85461e-05
3.80611e-08
3.99849e-05
4.09985e-08
4.14774e-05
4.27084e-08
4.30249e-05
4.34301e-08
4.46299e-05
4.32917e-08
4.62945e-05
4.24559e-08
4.80209e-05
4.09113e-08
4.98112e-05
3.88552e-08
5.16677e-05
3.63451e-08
5.35925e-05
3.33511e-08
5.55885e-05
2.99038e-08
5.76581e-05
2.60443e-08
5.98041e-05
2.18181e-08
6.20293e-05
1.72078e-08
6.43368e-05
1.21699e-08
6.67296e-05
6.92108e-05
8.82908e-09
3.4562e-05
2.20433e-08
3.58184e-05
3.25103e-08
3.71508e-05
3.88819e-08
3.85397e-05
4.28155e-08
3.99809e-05
4.59524e-08
4.14743e-05
4.78031e-08
4.30231e-05
4.82217e-08
4.46294e-05
4.75669e-08
4.62952e-05
4.60818e-08
4.80224e-05
4.41667e-08
4.98132e-05
4.1774e-08
5.167e-05
3.89151e-08
5.35954e-05
3.55962e-08
5.55918e-05
3.18243e-08
5.76618e-05
2.76298e-08
5.98083e-05
2.30411e-08
6.20339e-05
1.81029e-08
6.43417e-05
1.27877e-08
6.67349e-05
6.92165e-05
1.91554e-08
3.45512e-05
3.26466e-08
3.58049e-05
4.03406e-08
3.71431e-05
4.47741e-08
3.85353e-05
4.86449e-08
3.99771e-05
5.12097e-08
4.14717e-05
5.23287e-08
4.3022e-05
5.22069e-08
4.46296e-05
5.1156e-08
4.62962e-05
4.94635e-08
4.8024e-05
4.71987e-08
4.98154e-05
4.44554e-08
5.16728e-05
4.12156e-08
5.35986e-05
3.75342e-08
5.55955e-05
3.34634e-08
5.76659e-05
2.90135e-08
5.98127e-05
2.42075e-08
6.20387e-05
1.90828e-08
6.43469e-05
1.35474e-08
6.67404e-05
6.92224e-05
2.32634e-08
3.45366e-05
3.89637e-08
3.57892e-05
4.67915e-08
3.71353e-05
5.11171e-08
3.85309e-05
5.45337e-08
3.99736e-05
5.63817e-08
4.14699e-05
5.68814e-08
4.30215e-05
5.6362e-08
4.46301e-05
5.49836e-08
4.62976e-05
5.28913e-08
4.80261e-05
5.02149e-08
4.98181e-05
4.70503e-08
5.1676e-05
4.34768e-08
5.36022e-05
3.94993e-08
5.55994e-05
3.51079e-08
5.76703e-05
3.03301e-08
5.98175e-05
2.51777e-08
6.20439e-05
1.97478e-08
6.43523e-05
1.40298e-08
6.67461e-05
6.92286e-05
3.89037e-08
3.4515e-05
5.21759e-08
3.57759e-05
5.51508e-08
3.71323e-05
5.89808e-08
3.85271e-05
6.11054e-08
3.99715e-05
6.1836e-08
4.14691e-05
6.15036e-08
4.30218e-05
6.03043e-08
4.46313e-05
5.84087e-08
4.62995e-05
5.59081e-08
4.80286e-05
5.28599e-08
4.98211e-05
4.93572e-08
5.16795e-05
4.54367e-08
5.36061e-05
4.11386e-08
5.56037e-05
3.65102e-08
5.76749e-05
3.15348e-08
5.98225e-05
2.61975e-08
6.20492e-05
2.05593e-08
6.43579e-05
1.46506e-08
6.6752e-05
6.9235e-05
4.96888e-08
3.44872e-05
5.80971e-08
3.57675e-05
6.37351e-08
3.71267e-05
6.64808e-08
3.85244e-05
6.73713e-08
3.99706e-05
6.70823e-08
4.14694e-05
6.59529e-08
4.30229e-05
6.41748e-08
4.46331e-05
6.1793e-08
4.63019e-05
5.8843e-08
4.80316e-05
5.54103e-08
4.98246e-05
5.1538e-08
5.16833e-05
4.72954e-08
5.36104e-05
4.27193e-08
5.56083e-05
3.77982e-08
5.76798e-05
3.25554e-08
5.98277e-05
2.6984e-08
6.20548e-05
2.10899e-08
6.43638e-05
1.50621e-08
6.67581e-05
6.92415e-05
7.139e-08
3.44506e-05
7.26712e-08
3.57663e-05
7.42634e-08
3.71251e-05
7.48938e-08
3.85237e-05
7.41792e-08
3.99713e-05
7.25651e-08
4.1471e-05
7.0397e-08
4.30251e-05
6.77805e-08
4.46357e-05
6.47664e-08
4.63049e-05
6.13759e-08
4.8035e-05
5.75815e-08
4.98284e-05
5.34078e-08
5.16875e-05
4.88784e-08
5.36149e-05
4.40192e-08
5.56132e-05
3.88853e-08
5.7685e-05
3.34814e-08
5.98331e-05
2.77996e-08
6.20605e-05
2.17228e-08
6.43699e-05
1.55644e-08
6.67642e-05
6.92483e-05
8.80239e-08
8.53528e-08
8.49316e-08
8.35643e-08
8.13154e-08
7.85408e-08
7.53999e-08
7.20047e-08
6.83485e-08
6.43717e-08
6.01088e-08
5.55514e-08
5.06981e-08
4.5571e-08
4.0143e-08
3.44404e-08
2.84969e-08
2.23049e-08
1.57021e-08
)
;

boundaryField
{
    movingWall
    {
        type            calculated;
        value           nonuniform List<scalar> 
60
(
1.29515e-08
1.44919e-08
1.62365e-08
1.81497e-08
2.01291e-08
2.248e-08
2.46604e-08
2.74299e-08
2.99641e-08
3.2828e-08
3.60674e-08
3.87205e-08
4.25884e-08
4.54408e-08
4.93027e-08
5.28996e-08
5.67945e-08
6.07801e-08
6.52666e-08
6.96116e-08
7.43254e-08
7.92974e-08
8.54876e-08
8.89727e-08
9.7286e-08
1.00291e-07
1.08771e-07
1.13179e-07
1.21993e-07
1.24636e-07
1.37765e-07
1.33917e-07
1.48536e-07
1.44966e-07
1.58075e-07
1.43623e-07
1.58887e-07
1.37652e-07
1.40591e-07
1.02394e-07
2.84017e-10
7.62657e-10
1.42767e-09
2.03974e-09
2.49429e-09
3.1815e-09
3.66069e-09
4.25179e-09
4.77259e-09
5.25015e-09
5.84766e-09
6.22217e-09
6.75645e-09
7.10648e-09
7.57833e-09
7.8739e-09
8.25273e-09
8.51176e-09
8.82289e-09
9.03937e-09
)
;
    }
    leftSide
    {
        type            calculated;
        value           nonuniform List<scalar> 
20
(
-3.4585e-05
-3.587e-05
-3.72028e-05
-3.85851e-05
-4.00187e-05
-4.15056e-05
-4.30477e-05
-4.46472e-05
-4.6306e-05
-4.80265e-05
-4.9811e-05
-5.16617e-05
-5.35812e-05
-5.5572e-05
-5.76368e-05
-5.97783e-05
-6.19993e-05
-6.43029e-05
-6.66921e-05
-6.91701e-05
)
;
    }
    rightSide
    {
        type            calculated;
        value           nonuniform List<scalar> 
20
(
1.62536e-05
3.19096e-05
3.72008e-05
3.93673e-05
4.09301e-05
4.24575e-05
4.40269e-05
4.56544e-05
4.73416e-05
4.9091e-05
5.09049e-05
5.27861e-05
5.4737e-05
5.67604e-05
5.88592e-05
6.10363e-05
6.32946e-05
6.56384e-05
6.807e-05
7.05918e-05
)
;
    }
    bottomWall
    {
        type            calculated;
        value           uniform 0;
    }
    bottomWall2
    {