/*--------------------------------*- C++ -*----------------------------------*\
  =========                 |
  \\      /  F ield         | OpenFOAM: The Open Source CFD Toolbox
   \\    /   O peration     | Website:  https://openfoam.org
    \\  /    A nd           | Version:  10
     \\/     M anipulation  |
\*---------------------------------------------------------------------------*/
FoamFile
{
    format      ascii;
    class       volVectorField;
    location    "0.6";
    object      U;
}
// * * * * * * * * * * * * * * * * * * * * * * * * * * * * * * * * * * * * * //

dimensions      [0 1 -1 0 0 0 0];

internalField   nonuniform List<vector> 
1200
(
(0 0.00214494 0.992407)
(0 0.00380309 0.997585)
(0 0.00320457 0.998204)
(0 0.00294527 0.998664)
(0 0.00279371 0.999062)
(0 0.00265362 0.999409)
(0 0.00251544 0.99971)
(0 0.00237985 0.999973)
(0 0.00224061 1.0002)
(0 0.00210156 1.0004)
(0 0.00196005 1.00057)
(0 0.00181085 1.00072)
(0 0.00165761 1.00085)
(0 0.00149682 1.00096)
(0 0.00132954 1.00106)
(0 0.00115633 1.00114)
(0 0.000974281 1.00121)
(0 0.000784822 1.00127)
(0 0.000625538 1.00131)
(0 0.00028601 1.00136)
(0 0.00298591 0.984889)
(0 0.0050243 0.99757)
(0 0.00387857 0.998161)
(0 0.00349703 0.998622)
(0 0.00325783 0.999024)
(0 0.00304924 0.999377)
(0 0.00285787 0.999686)
(0 0.00267197 0.999952)
(0 0.00249568 1.00019)
(0 0.00232313 1.00039)
(0 0.00214857 1.00056)
(0 0.00197689 1.00072)
(0 0.00180083 1.00085)
(0 0.00162088 1.00096)
(0 0.0014364 1.00106)
(0 0.00124361 1.00115)
(0 0.00104434 1.00122)
(0 0.000838361 1.00128)
(0 0.000670102 1.00132)
(0 0.000308637 1.00137)
(0 0.00362088 0.977744)
(0 0.00595792 0.998076)
(0 0.00448106 0.998618)
(0 0.00402945 0.999)
(0 0.00372297 0.999367)
(0 0.00344998 0.999703)
(0 0.00319446 0.999999)
(0 0.00296147 1.00026)
(0 0.00274396 1.00049)
(0 0.00253629 1.00069)
(0 0.00233913 1.00087)
(0 0.00214063 1.00102)
(0 0.00194226 1.00115)
(0 0.00174397 1.00127)
(0 0.0015419 1.00137)
(0 0.00133675 1.00145)
(0 0.00112424 1.00152)
(0 0.000902612 1.00157)
(0 0.00072229 1.00162)
(0 0.000333369 1.00167)
(0 0.00394942 0.970417)
(0 0.00647847 0.998459)
(0 0.00490143 0.998989)
(0 0.00449611 0.99928)
(0 0.00416347 0.999581)
(0 0.00383994 0.999862)
(0 0.00354404 1.00012)
(0 0.00326878 1.00036)
(0 0.00301187 1.00057)
(0 0.00277271 1.00076)
(0 0.00253984 1.00092)
(0 0.00231685 1.00107)
(0 0.00209773 1.0012)
(0 0.00187617 1.0013)
(0 0.00165389 1.0014)
(0 0.00142734 1.00148)
(0 0.00119595 1.00155)
(0 0.000959511 1.00161)
(0 0.000772416 1.00165)
(0 0.000359231 1.0017)
(0 0.00405948 0.962865)
(0 0.00662698 0.999179)
(0 0.0051052 0.999812)
(0 0.00482266 0.999981)
(0 0.00449585 1.00019)
(0 0.00415504 1.00041)
(0 0.00382538 1.00062)
(0 0.00352081 1.00082)
(0 0.00324354 1.001)
(0 0.00297821 1.00117)
(0 0.00272734 1.00132)
(0 0.00248168 1.00145)
(0 0.0022385 1.00157)
(0 0.00200273 1.00167)
(0 0.00176641 1.00176)
(0 0.00152708 1.00183)
(0 0.00128173 1.0019)
(0 0.00102603 1.00195)
(0 0.000824395 1.002)
(0 0.000384127 1.00204)
(0 0.0040502 0.954687)
(0 0.00659957 0.999448)
(0 0.00517515 1.00033)
(0 0.00504908 1.00043)
(0 0.00476804 1.00056)
(0 0.00442767 1.0007)
(0 0.00409406 1.00085)
(0 0.0037779 1.00101)
(0 0.00347258 1.00115)
(0 0.0031877 1.0013)
(0 0.00291462 1.00143)
(0 0.00264879 1.00155)
(0 0.00239058 1.00165)
(0 0.0021301 1.00175)
(0 0.00187086 1.00183)
(0 0.00161343 1.00191)
(0 0.00135238 1.00197)
(0 0.00108625 1.00201)
(0 0.000881041 1.00205)
(0 0.000413532 1.0021)
(0 0.00401377 0.946145)
(0 0.0064856 0.999897)
(0 0.00512426 1.0012)
(0 0.00514223 1.00125)
(0 0.00489613 1.0013)
(0 0.00458105 1.00139)
(0 0.00426019 1.00148)
(0 0.00394547 1.00159)
(0 0.00364945 1.0017)
(0 0.00335851 1.0018)
(0 0.00307268 1.00191)
(0 0.00279641 1.00201)
(0 0.0025227 1.0021)
(0 0.00225545 1.00217)
(0 0.00198835 1.00224)
(0 0.00171479 1.00231)
(0 0.00143546 1.00236)
(0 0.00114668 1.00241)
(0 0.000927622 1.00245)
(0 0.000437434 1.0025)
(0 0.00400347 0.93695)
(0 0.00643148 0.999734)
(0 0.00511166 1.00157)
(0 0.00521313 1.00163)
(0 0.00500593 1.00166)
(0 0.00471519 1.0017)
(0 0.00440766 1.00176)
(0 0.00410693 1.00183)
(0 0.0038051 1.00191)
(0 0.00350975 1.00199)
(0 0.00322343 1.00207)
(0 0.00293327 1.00215)
(0 0.00264641 1.00223)
(0 0.0023605 1.0023)
(0 0.00207586 1.00236)
(0 0.00179525 1.00241)
(0 0.00150947 1.00246)
(0 0.00121371 1.0025)
(0 0.000990429 1.00253)
(0 0.000469092 1.00257)
(0 0.00401188 0.927471)
(0 0.00642355 0.999773)
(0 0.00509552 1.00228)
(0 0.00524645 1.00236)
(0 0.00503871 1.00238)
(0 0.00476102 1.00239)
(0 0.00448477 1.00242)
(0 0.00420204 1.00245)
(0 0.00391799 1.0025)
(0 0.00363396 1.00256)
(0 0.00334211 1.00261)
(0 0.00305611 1.00267)
(0 0.00276949 1.00273)
(0 0.00247772 1.00278)
(0 0.0021834 1.00283)
(0 0.0018818 1.00288)
(0 0.00157492 1.00293)
(0 0.00126066 1.00296)
(0 0.00103248 1.00299)
(0 0.000494068 1.00303)
(0 0.00405093 0.917432)
(0 0.00646905 0.999215)
(0 0.00516011 1.00246)
(0 0.00531604 1.0026)
(0 0.00509396 1.00263)
(0 0.00482462 1.00265)
(0 0.0045502 1.00267)
(0 0.00428049 1.0027)
(0 0.00401058 1.00273)
(0 0.00372708 1.00277)
(0 0.00344289 1.00281)
(0 0.00315051 1.00286)
(0 0.00285338 1.0029)
(0 0.00256019 1.00294)
(0 0.0022643 1.00297)
(0 0.00196442 1.003)
(0 0.0016554 1.00304)
(0 0.00132944 1.00307)
(0 0.0010902 1.00309)
(0 0.000522014 1.00313)
(0 0.00407745 0.907161)
(0 0.00655315 0.998928)
(0 0.00525876 1.00305)
(0 0.00541148 1.00322)
(0 0.00516148 1.00325)
(0 0.00487674 1.00327)
(0 0.00461477 1.00329)
(0 0.00435664 1.00331)
(0 0.00408618 1.00334)
(0 0.00381679 1.00337)
(0 0.00353644 1.00339)
(0 0.00324735 1.00342)
(0 0.00295401 1.00346)
(0 0.00264828 1.00349)
(0 0.00233744 1.00352)
(0 0.00202422 1.00355)
(0 0.00170391 1.00358)
(0 0.00137205 1.0036)
(0 0.00113936 1.00361)
(0 0.000552925 1.00364)
(0 0.004101 0.896374)
(0 0.00659906 0.998074)
(0 0.00534957 1.00316)
(0 0.00551269 1.00339)
(0 0.00522701 1.00344)
(0 0.00493932 1.00348)
(0 0.00467676 1.00351)
(0 0.004414 1.00353)
(0 0.00415786 1.00355)
(0 0.00388621 1.00357)
(0 0.00360438 1.00359)
(0 0.00332036 1.00362)
(0 0.00302603 1.00363)
(0 0.00272765 1.00365)
(0 0.00242181 1.00367)
(0 0.00210232 1.00369)
(0 0.00177139 1.00371)
(0 0.00142152 1.00374)
(0 0.00117684 1.00375)
(0 0.000572521 1.00379)
(0 0.0041109 0.885381)
(0 0.00667373 0.997546)
(0 0.00548647 1.00373)
(0 0.00564289 1.00399)
(0 0.00533956 1.00404)
(0 0.00503461 1.00408)
(0 0.00475693 1.00411)
(0 0.00450032 1.00414)
(0 0.00423327 1.00417)
(0 0.00395951 1.00419)
(0 0.00368222 1.00422)
(0 0.00338906 1.00424)
(0 0.00308981 1.00426)
(0 0.00278503 1.00427)
(0 0.00247202 1.00428)
(0 0.00215517 1.00429)
(0 0.00182686 1.0043)
(0 0.00147544 1.00431)
(0 0.00123585 1.00432)
(0 0.00060729 1.00435)
(0 0.00409681 0.873802)
(0 0.00669354 0.996392)
(0 0.00555579 1.00385)
(0 0.00574775 1.0042)
(0 0.00543045 1.00425)
(0 0.00512024 1.00428)
(0 0.0048537 1.00432)
(0 0.00458379 1.00434)
(0 0.00431487 1.00437)
(0 0.00404518 1.00439)
(0 0.00375947 1.00441)
(0 0.00346896 1.00442)
(0 0.0031707 1.00444)
(0 0.00285875 1.00445)
(0 0.00253906 1.00446)
(0 0.00220948 1.00447)
(0 0.00186683 1.00448)
(0 0.00150275 1.00449)
(0 0.0012621 1.0045)
(0 0.00062491 1.00452)
(0 0.00409398 0.862091)
(0 0.0067128 0.995625)
(0 0.00564992 1.00445)
(0 0.0058389 1.00485)
(0 0.00550958 1.00489)
(0 0.00520977 1.00493)
(0 0.00492941 1.00496)
(0 0.00466081 1.00499)
(0 0.00439278 1.00502)
(0 0.00410701 1.00505)
(0 0.00382096 1.00507)
(0 0.00352978 1.00508)
(0 0.00322657 1.00509)
(0 0.00291805 1.0051)
(0 0.00260066 1.0051)
(0 0.00226991 1.00511)
(0 0.00192701 1.00512)
(0 0.00155484 1.00513)
(0 0.00131141 1.00513)
(0 0.000654101 1.00516)
(0 0.00406162 0.849662)
(0 0.00675329 0.99412)
(0 0.00574079 1.00456)
(0 0.0059474 1.0051)
(0 0.00562863 1.00515)
(0 0.00531556 1.00517)
(0 0.00504206 1.0052)
(0 0.00477631 1.00523)
(0 0.00449209 1.00525)
(0 0.00420875 1.00527)
(0 0.00391512 1.00529)
(0 0.00360701 1.0053)
(0 0.00329658 1.00531)
(0 0.00298008 1.00532)
(0 0.00265123 1.00532)
(0 0.00231675 1.00532)
(0 0.00196766 1.00532)
(0 0.00158599 1.00532)
(0 0.00134638 1.00532)
(0 0.00067701 1.00534)
(0 0.00404647 0.837135)
(0 0.00672708 0.993037)
(0 0.00576253 1.0052)
(0 0.00598341 1.00584)
(0 0.00565112 1.00587)
(0 0.00536439 1.00589)
(0 0.00510453 1.00592)
(0 0.00482558 1.00594)
(0 0.00455305 1.00597)
(0 0.00427054 1.00598)
(0 0.00397373 1.00599)
(0 0.00367429 1.006)
(0 0.00336418 1.00601)
(0 0.00303733 1.00601)
(0 0.00270772 1.00602)
(0 0.00236826 1.00603)
(0 0.00201298 1.00603)
(0 0.00162561 1.00603)
(0 0.00138415 1.00603)
(0 0.000701193 1.00605)
(0 0.00402227 0.823826)
(0 0.00678224 0.991112)
(0 0.00589023 1.00524)
(0 0.00608418 1.00606)
(0 0.00576177 1.00611)
(0 0.00548304 1.00614)
(0 0.00521228 1.00615)
(0 0.00494924 1.00618)
(0 0.00466271 1.0062)
(0 0.00435571 1.00622)
(0 0.00405383 1.00624)
(0 0.00374807 1.00624)
(0 0.00342812 1.00624)
(0 0.00310626 1.00625)
(0 0.00277137 1.00625)
(0 0.0024194 1.00624)
(0 0.00205834 1.00625)
(0 0.00165823 1.00625)
(0 0.00141796 1.00625)
(0 0.000724045 1.00627)
(0 0.00398791 0.810398)
(0 0.00678816 0.989634)
(0 0.00591944 1.00593)
(0 0.00612448 1.00692)
(0 0.00579367 1.00697)
(0 0.00550534 1.00697)
(0 0.00526392 1.00698)
(0 0.00500589 1.00699)
(0 0.00472156 1.007)
(0 0.00443582 1.00701)
(0 0.00413015 1.00702)
(0 0.00380339 1.00702)
(0 0.00348212 1.00703)
(0 0.00315621 1.00703)
(0 0.00281551 1.00702)
(0 0.00247341 1.00702)
(0 0.00211096 1.00701)
(0 0.0017002 1.00701)
(0 0.00145818 1.00701)
(0 0.000750133 1.00702)
(0 0.00397466 0.796178)
(0 0.00678801 0.987243)
(0 0.00600556 1.00589)
(0 0.00619779 1.00714)
(0 0.00584948 1.00721)
(0 0.00558762 1.00724)
(0 0.00533926 1.00725)
(0 0.00506605 1.00726)
(0 0.00479919 1.00727)
(0 0.00450842 1.00728)
(0 0.00419689 1.00727)
(0 0.00388683 1.00728)
(0 0.00356045 1.00729)
(0 0.00320902 1.00729)
(0 0.00286574 1.00729)
(0 0.00251046 1.00729)
(0 0.00213971 1.00729)
(0 0.00173075 1.00728)
(0 0.00149319 1.00727)
(0 0.000771861 1.00728)
(0 0.00392624 0.78183)
(0 0.00685562 0.985293)
(0 0.00612313 1.00654)
(0 0.00628321 1.00801)
(0 0.00593573 1.0081)
(0 0.00565647 1.00811)
(0 0.00538737 1.00811)
(0 0.00514038 1.00812)
(0 0.00485878 1.00812)
(0 0.00455659 1.00812)
(0 0.00425987 1.00812)
(0 0.00395213 1.00811)
(0 0.00361676 1.00809)
(0 0.00329114 1.0081)
(0 0.00294038 1.00809)
(0 0.00256808 1.00809)
(0 0.00219289 1.0081)
(0 0.00175938 1.0081)
(0 0.00151738 1.0081)
(0 0.000795306 1.00811)
(0 0.0039031 0.766614)
(0 0.00683685 0.982372)
(0 0.00616317 1.00651)
(0 0.00634525 1.00838)
(0 0.00599081 1.00849)
(0 0.00569166 1.00851)
(0 0.00545581 1.00852)
(0 0.00518319 1.00852)
(0 0.00489554 1.00851)
(0 0.00461211 1.0085)
(0 0.0043133 1.0085)
(0 0.00397932 1.00847)
(0 0.00366523 1.00846)
(0 0.00333101 1.00844)
(0 0.00297629 1.00842)
(0 0.00263072 1.00841)
(0 0.00225329 1.00839)
(0 0.00181451 1.00839)
(0 0.00156894 1.00839)
(0 0.000818843 1.0084)
(0 0.00387295 0.751273)
(0 0.00686926 0.979851)
(0 0.00627608 1.00698)
(0 0.00643038 1.00916)
(0 0.00604127 1.00929)
(0 0.00577911 1.00933)
(0 0.00550555 1.00934)
(0 0.00522303 1.00936)
(0 0.00494284 1.00937)
(0 0.00464884 1.00939)
(0 0.00432337 1.00937)
(0 0.00402368 1.00938)
(0 0.00369895 1.00937)
(0 0.00334252 1.00935)
(0 0.00300782 1.00935)
(0 0.00264348 1.00933)
(0 0.0022641 1.00931)
(0 0.00183488 1.0093)
(0 0.00160216 1.00928)
(0 0.000851415 1.00928)
(0 0.00380706 0.734939)
(0 0.00692411 0.97623)
(0 0.00640447 1.00688)
(0 0.00654246 1.00954)
(0 0.00620148 1.00973)
(0 0.00590023 1.00973)
(0 0.0056257 1.00974)
(0 0.00535818 1.00974)
(0 0.00506644 1.00974)
(0 0.00473938 1.00973)
(0 0.00443708 1.00973)
(0 0.00411477 1.00972)
(0 0.00375485 1.00969)
(0 0.00342902 1.00969)
(0 0.00306596 1.00967)
(0 0.00268381 1.00966)
(0 0.00230652 1.00965)
(0 0.00184833 1.00965)
(0 0.0016054 1.00964)
(0 0.000855153 1.00965)
(0 0.00378507 0.718651)
(0 0.00685443 0.973137)
(0 0.00636696 1.00734)
(0 0.00653657 1.01049)
(0 0.0061555 1.0107)
(0 0.00586917 1.01072)
(0 0.00562349 1.01074)
(0 0.00534335 1.01075)
(0 0.00503105 1.01074)
(0 0.00474591 1.01075)
(0 0.00444496 1.01074)
(0 0.00409424 1.01071)
(0 0.00378693 1.01071)
(0 0.00344368 1.01068)
(0 0.00307721 1.01065)
(0 0.00273588 1.01064)
(0 0.00235727 1.01062)
(0 0.00190218 1.0106)
(0 0.00167509 1.01059)
(0 0.000902221 1.01059)
(0 0.00372916 0.701198)
(0 0.0069374 0.968784)
(0 0.00658942 1.00699)
(0 0.00670651 1.01075)
(0 0.00633444 1.01101)
(0 0.00607676 1.01105)
(0 0.00580543 1.01106)
(0 0.00549262 1.01107)
(0 0.0051961 1.01108)
(0 0.00487935 1.01109)
(0 0.00451031 1.01107)
(0 0.00419633 1.01108)
(0 0.00385403 1.01107)
(0 0.00347214 1.01105)
(0 0.0031282 1.01105)
(0 0.00274641 1.01102)
(0 0.00234691 1.011)
(0 0.00189422 1.011)
(0 0.00166302 1.01097)
(0 0.000897306 1.01097)
(0 0.00364857 0.683869)
(0 0.00693872 0.964906)
(0 0.00657844 1.00746)
(0 0.00669188 1.01188)
(0 0.00633587 1.01223)
(0 0.00605003 1.01223)
(0 0.00576208 1.01223)
(0 0.00550916 1.01222)
(0 0.00522089 1.01221)
(0 0.00487204 1.01218)
(0 0.00456932 1.01217)
(0 0.00424683 1.01216)
(0 0.00386662 1.01212)
(0 0.00354323 1.01212)
(0 0.00318037 1.01209)
(0 0.00279179 1.01206)
(0 0.00242052 1.01205)
(0 0.00194605 1.01204)
(0 0.00171052 1.01203)
(0 0.000939288 1.01203)
(0 0.00363453 0.665416)
(0 0.0068676 0.959907)
(0 0.00665253 1.00699)
(0 0.00679614 1.01224)
(0 0.00642737 1.01263)
(0 0.00609884 1.01266)
(0 0.00586479 1.01266)
(0 0.00557161 1.01266)
(0 0.00523031 1.01263)
(0 0.00493304 1.01262)
(0 0.00463331 1.01261)
(0 0.00424448 1.01256)
(0 0.00391982 1.01256)
(0 0.00355927 1.01254)
(0 0.00316328 1.0125)
(0 0.00280792 1.01249)
(0 0.00241891 1.01246)
(0 0.00194503 1.01244)
(0 0.00172562 1.01242)
(0 0.000943025 1.01242)
(0 0.00355885 0.647094)
(0 0.00692889 0.955034)
(0 0.00674587 1.00713)
(0 0.0068477 1.01325)
(0 0.00640148 1.01376)
(0 0.00616778 1.01382)
(0 0.00587866 1.01382)
(0 0.00554734 1.01381)
(0 0.00524861 1.0138)
(0 0.00497604 1.01381)
(0 0.00459648 1.01375)
(0 0.00429433 1.01374)
(0 0.00397346 1.01371)
(0 0.00358038 1.01367)
(0 0.003232 1.01365)
(0 0.00284781 1.01362)
(0 0.00244797 1.01359)
(0 0.00197507 1.01358)
(0 0.00175524 1.01356)
(0 0.000980638 1.01355)
(0 0.00341073 0.627351)
(0 0.00695402 0.949329)
(0 0.00690892 1.00679)
(0 0.00693934 1.01383)
(0 0.00662595 1.01444)
(0 0.00630643 1.01444)
(0 0.00597082 1.0144)
(0 0.00565316 1.01437)
(0 0.00537254 1.01436)
(0 0.00496577 1.0143)
(0 0.00463031 1.01427)
(0 0.00432422 1.01424)
(0 0.00392357 1.01417)
(0 0.00358714 1.01413)
(0 0.00322996 1.01408)
(0 0.00283612 1.01403)
(0 0.00246204 1.01401)
(0 0.00198276 1.01399)
(0 0.00174707 1.01397)
(0 0.000966995 1.01397)
(0 0.00340717 0.608344)
(0 0.00675262 0.943325)
(0 0.00662856 1.00652)
(0 0.0067773 1.01498)
(0 0.00640401 1.01578)
(0 0.00607221 1.01582)
(0 0.00580013 1.01579)
(0 0.00556878 1.01578)
(0 0.00520248 1.01572)
(0 0.00487275 1.01567)
(0 0.00461429 1.01565)
(0 0.00422238 1.01557)
(0 0.00388671 1.01552)
(0 0.00356212 1.01547)
(0 0.00318179 1.0154)
(0 0.00283266 1.01534)
(0 0.00247863 1.01528)
(0 0.00200247 1.01522)
(0 0.00180845 1.01518)
(0 0.00103072 1.01515)
(0 0.00332211 0.587635)
(0 0.00682251 0.93695)
(0 0.00695091 1.0058)
(0 0.00703677 1.01517)
(0 0.00655679 1.01604)
(0 0.00623679 1.01609)
(0 0.00598696 1.01611)
(0 0.00560266 1.01607)
(0 0.00521824 1.01603)
(0 0.00495937 1.01603)
(0 0.00455786 1.01597)
(0 0.00418906 1.01593)
(0 0.00386742 1.0159)
(0 0.00346856 1.01585)
(0 0.00309439 1.01581)
(0 0.00273064 1.01576)
(0 0.00235105 1.01572)
(0 0.00188966 1.01568)
(0 0.00169708 1.01564)
(0 0.000966558 1.01562)
(0 0.00307739 0.567747)
(0 0.00673002 0.929655)
(0 0.00686056 1.00551)
(0 0.00681636 1.0167)
(0 0.00641332 1.01784)
(0 0.00618059 1.01789)
(0 0.0058447 1.01781)
(0 0.00546579 1.0177)
(0 0.00524384 1.01765)
(0 0.00488251 1.01754)
(0 0.00451278 1.01743)
(0 0.00423375 1.01736)
(0 0.0038709 1.01726)
(0 0.00350762 1.01717)
(0 0.00316287 1.0171)
(0 0.00279137 1.01703)
(0 0.00243911 1.01697)
(0 0.00196113 1.01693)
(0 0.00177119 1.01689)
(0 0.00103489 1.01687)
(0 0.0028631 0.546924)
(0 0.0064616 0.923094)
(0 0.00651291 1.00494)
(0 0.00652717 1.01729)
(0 0.00621118 1.01854)
(0 0.00585806 1.01854)
(0 0.00546477 1.01841)
(0 0.00524132 1.01834)
(0 0.00490732 1.01823)
(0 0.00451077 1.0181)
(0 0.00424317 1.01801)
(0 0.00391755 1.01789)
(0 0.00356612 1.01777)
(0 0.00325414 1.01768)
(0 0.00291782 1.01757)
(0 0.00259383 1.01748)
(0 0.00227182 1.0174)
(0 0.0018299 1.01733)
(0 0.00166673 1.01727)
(0 0.000974223 1.01725)
(0 0.00278746 0.527823)
(0 0.00607015 0.914768)
(0 0.00616875 1.00383)
(0 0.0062877 1.01838)
(0 0.00585816 1.02001)
(0 0.00547041 1.02002)
(0 0.00528183 1.01995)
(0 0.00501711 1.01985)
(0 0.00462251 1.01969)
(0 0.00436624 1.01958)
(0 0.00409 1.01945)
(0 0.00374761 1.0193)
(0 0.00345978 1.01918)
(0 0.00314726 1.01904)
(0 0.00282634 1.01891)
(0 0.00252646 1.01879)
(0 0.00222599 1.01867)
(0 0.00179549 1.01858)
(0 0.00168291 1.0185)
(0 0.00102418 1.01844)
(0 0.00241456 0.507378)
(0 0.00587587 0.907986)
(0 0.00616172 1.00315)
(0 0.00605881 1.0188)
(0 0.00548549 1.02048)
(0 0.00522403 1.02051)
(0 0.00497399 1.02039)
(0 0.00453161 1.02021)
(0 0.00422459 1.02007)
(0 0.00396303 1.01994)
(0 0.00361249 1.01977)
(0 0.00332932 1.01963)
(0 0.00304214 1.01949)
(0 0.00273615 1.01935)
(0 0.00246097 1.01923)
(0 0.00217787 1.01911)
(0 0.00191267 1.019)
(0 0.00155002 1.01891)
(0 0.00145236 1.01884)
(0 0.000897583 1.01879)
(0 0.00141509 0.489851)
(0 0.00503512 0.899991)
(0 0.0051937 1.00278)
(0 0.00506789 1.02079)
(0 0.00475875 1.02283)
(0 0.00465849 1.02277)
(0 0.00430662 1.02245)
(0 0.00403747 1.02215)
(0 0.00385699 1.02189)
(0 0.00356346 1.0216)
(0 0.00332389 1.02134)
(0 0.00309377 1.0211)
(0 0.00283321 1.02087)
(0 0.00259293 1.02066)
(0 0.00234695 1.02046)
(0 0.00209981 1.02029)
(0 0.00188161 1.02013)
(0 0.00152399 1.02001)
(0 0.00148599 1.01991)
(0 0.000957979 1.01985)
(0 0.000407308 0.476499)
(0 0.00345274 0.8948)
(0 0.00303307 1.00207)
(0 0.00311295 1.02118)
(0 0.00308305 1.02339)
(0 0.00286488 1.02322)
(0 0.00268915 1.02289)
(0 0.00263208 1.02256)
(0 0.00244156 1.02222)
(0 0.00230851 1.02191)
(0 0.00218528 1.02162)
(0 0.00203687 1.02134)
(0 0.00189605 1.02109)
(0 0.001759 1.02085)
(0 0.00161464 1.02063)
(0 0.00146925 1.02044)
(0 0.00135573 1.02027)
(0 0.0011121 1.02012)
(0 0.00114669 1.02)
(0 0.000799336 1.01992)
(0 -0.000516063 0.469834)
(0 0.00167554 0.890882)
(0 0.000943991 1.00122)
(0 0.00165285 1.02152)
(0 0.00154356 1.0239)
(0 0.00154917 1.02386)
(0 0.00169946 1.02357)
(0 0.00162593 1.02325)
(0 0.00163721 1.02294)
(0 0.00162224 1.02265)
(0 0.00157694 1.02236)
(0 0.00152221 1.02209)
(0 0.00147155 1.02183)
(0 0.00139825 1.02159)
(0 0.00130541 1.02136)
(0 0.00122924 1.02115)
(0 0.00117451 1.02097)
(0 0.000954848 1.02082)
(0 0.00105609 1.02069)
(0 0.0007865 1.02057)
(0 -0.000467454 0.469785)
(0 0.000250218 0.88927)
(0 -0.000270132 0.99959)
(0 0.000255869 1.01991)
(0 -3.94453e-05 1.02241)
(0 0.000248461 1.02258)
(0 0.000189304 1.02239)
(0 0.000272673 1.02221)
(0 0.000315304 1.02201)
(0 0.00035445 1.02181)
(0 0.000386984 1.02161)
(0 0.000417002 1.02141)
(0 0.000446579 1.02122)
(0 0.000470781 1.02103)
(0 0.000484907 1.02086)
(0 0.000492257 1.0207)
(0 0.000556038 1.02054)
(0 0.000464703 1.02042)
(0 0.000596151 1.02031)
(0 0.000550751 1.0202)
(0 4.2791e-05 0.995492)
(0 4.87668e-05 0.999703)
(0 1.62615e-05 1.00009)
(0 1.8682e-05 1.00012)
(0 1.55897e-05 1.00012)
(0 1.57043e-05 1.00012)
(0 1.67791e-05 1.00012)
(0 1.83356e-05 1.00012)
(0 1.94347e-05 1.00012)
(0 2.05868e-05 1.00012)
(0 2.23939e-05 1.00012)
(0 2.35494e-05 1.00012)
(0 2.34144e-05 1.00012)
(0 2.20479e-05 1.00012)
(0 2.0362e-05 1.00012)
(0 1.91356e-05 1.00012)
(0 1.79129e-05 1.00012)
(0 1.59999e-05 1.00012)
(0 1.26828e-05 1.00012)
(0 5.33162e-06 1.00012)
(0 -0.000105454 1.00442)
(0 -0.000128718 1.00024)
(0 -1.5603e-05 0.999908)
(0 1.4904e-05 0.999879)
(0 2.07113e-05 0.999875)
(0 2.64904e-05 0.999874)
(0 3.40682e-05 0.999876)
(0 4.33772e-05 0.999878)
(0 5.2426e-05 0.999879)
(0 6.03838e-05 0.999881)
(0 6.50155e-05 0.999883)
(0 6.83929e-05 0.999885)
(0 7.12592e-05 0.999886)
(0 7.20725e-05 0.999887)
(0 6.9273e-05 0.999888)
(0 6.2242e-05 0.99989)
(0 5.26447e-05 0.999892)
(0 4.20056e-05 0.999894)
(0 3.11085e-05 0.999896)
(0 1.28765e-05 0.999897)
(0 3.59323e-05 0.995651)
(0 4.5396e-05 0.999736)
(0 2.87657e-05 1.00008)
(0 4.12461e-05 1.00008)
(0 5.01336e-05 1.00008)
(0 6.14257e-05 1.00008)
(0 7.33093e-05 1.00008)
(0 8.24906e-05 1.00009)
(0 9.3356e-05 1.0001)
(0 0.000103886 1.0001)
(0 0.000112506 1.00011)
(0 0.000117223 1.00012)
(0 0.000116712 1.00012)
(0 0.000114081 1.00013)
(0 0.000110074 1.00013)
(0 0.000103499 1.00013)
(0 9.30496e-05 1.00013)
(0 7.79576e-05 1.00014)
(0 5.83443e-05 1.00014)
(0 2.37871e-05 1.00014)
(0 -8.43729e-05 1.00411)
(0 -9.456e-05 1.00013)
(0 -4.42695e-06 0.999873)
(0 2.57221e-05 0.999845)
(0 5.0137e-05 0.99984)
(0 7.58158e-05 0.999843)
(0 9.75838e-05 0.999848)
(0 0.000120166 0.999857)
(0 0.000138792 0.999869)
(0 0.000152128 0.999881)
(0 0.000163373 0.999894)
(0 0.000170822 0.999904)
(0 0.000173642 0.999914)
(0 0.000169194 0.999924)
(0 0.000157373 0.999935)
(0 0.000141616 0.999945)
(0 0.000123393 0.999951)
(0 0.00010346 0.999954)
(0 8.09702e-05 0.999955)
(0 3.45586e-05 0.999958)
(0 6.74886e-05 0.995759)
(0 9.77294e-05 0.999687)
(0 5.11248e-05 0.99998)
(0 5.44805e-05 0.999994)
(0 8.72621e-05 1)
(0 0.000116275 1.00001)
(0 0.000143695 1.00002)
(0 0.000168883 1.00004)
(0 0.000191002 1.00006)
(0 0.000209529 1.00008)
(0 0.000220067 1.0001)
(0 0.000224558 1.00012)
(0 0.000225228 1.00014)
(0 0.000221257 1.00015)
(0 0.00021167 1.00016)
(0 0.000193446 1.00017)
(0 0.000167433 1.00018)
(0 0.00013667 1.00019)
(0 0.000103508 1.0002)
(0 4.3566e-05 1.00021)
(0 -3.96851e-05 1.00377)
(0 -1.87261e-05 0.999961)
(0 4.06129e-05 0.99976)
(0 6.48744e-05 0.999753)
(0 0.000105563 0.999759)
(0 0.000151614 0.999775)
(0 0.000192132 0.999796)
(0 0.000225292 0.999821)
(0 0.000252682 0.999851)
(0 0.000272609 0.999879)
(0 0.000286353 0.999906)
(0 0.000292259 0.999932)
(0 0.000287881 0.999956)
(0 0.000275938 0.999979)
(0 0.000257789 0.999997)
(0 0.000234731 1.00001)
(0 0.000206422 1.00002)
(0 0.00017251 1.00003)
(0 0.000134081 1.00004)
(0 5.72479e-05 1.00005)
(0 8.92677e-05 0.995818)
(0 0.000145407 0.999575)
(0 0.000100688 0.999823)
(0 0.000109185 0.99985)
(0 0.000157646 0.999876)
(0 0.000207472 0.999905)
(0 0.000253033 0.999938)
(0 0.000293816 0.999976)
(0 0.000324131 1.00001)
(0 0.000345094 1.00005)
(0 0.000356982 1.00009)
(0 0.000359259 1.00012)
(0 0.000354748 1.00016)
(0 0.000341323 1.00018)
(0 0.000318278 1.00021)
(0 0.000286567 1.00023)
(0 0.000247336 1.00025)
(0 0.000203151 1.00026)
(0 0.000157589 1.00028)
(0 6.80772e-05 1.00029)
(0 -9.09128e-06 1.00341)
(0 4.13269e-05 0.999746)
(0 0.000110962 0.999584)
(0 0.000152563 0.999599)
(0 0.000212519 0.999635)
(0 0.000273203 0.999678)
(0 0.000329036 0.999725)
(0 0.000372865 0.999773)
(0 0.000405744 0.999824)
(0 0.000428016 0.999873)
(0 0.000438195 0.999919)
(0 0.000438441 0.999963)
(0 0.000426412 1)
(0 0.00040438 1.00004)
(0 0.000375048 1.00007)
(0 0.000337892 1.00009)
(0 0.000293698 1.00012)
(0 0.000243479 1.00013)
(0 0.000189608 1.00015)
(0 8.17435e-05 1.00016)
(0 9.76328e-05 0.99582)
(0 0.00017764 0.999416)
(0 0.000171803 0.999624)
(0 0.000224299 0.999666)
(0 0.000296631 0.999721)
(0 0.000360757 0.999783)
(0 0.000415753 0.999846)
(0 0.000463391 0.99991)
(0 0.000497565 0.999973)
(0 0.000515889 1.00003)
(0 0.000523233 1.00009)
(0 0.000518545 1.00015)
(0 0.000503644 1.00019)
(0 0.000478214 1.00023)
(0 0.00043998 1.00027)
(0 0.000391928 1.00031)
(0 0.00033645 1.00033)
(0 0.000276025 1.00036)
(0 0.000216516 1.00037)
(0 9.4974e-05 1.00039)
(0 4.80711e-06 1.00303)
(0 7.88839e-05 0.999499)
(0 0.000199613 0.99938)
(0 0.000297263 0.99942)
(0 0.000393029 0.999489)
(0 0.000465197 0.999567)
(0 0.000524209 0.999649)
(0 0.000569185 0.99973)
(0 0.000599861 0.999806)
(0 0.000618846 0.99988)
(0 0.000620695 0.999947)
(0 0.000607795 1.00001)
(0 0.000583294 1.00007)
(0 0.000548249 1.00012)
(0 0.00050555 1.00016)
(0 0.000453003 1.00019)
(0 0.000390225 1.00022)
(0 0.00032003 1.00025)
(0 0.000248912 1.00027)
(0 0.000108241 1.00029)
(0 0.000102032 0.995755)
(0 0.00021565 0.999212)
(0 0.000279334 0.999404)
(0 0.000403018 0.999476)
(0 0.000510987 0.999564)
(0 0.000587437 0.999662)
(0 0.000644718 0.99976)
(0 0.000685736 0.999856)
(0 0.000712155 0.99995)
(0 0.000721822 1.00004)
(0 0.000718928 1.00011)
(0 0.000702764 1.00019)
(0 0.000670678 1.00025)
(0 0.000625998 1.00031)
(0 0.000569806 1.00036)
(0 0.000505447 1.0004)
(0 0.000434785 1.00044)
(0 0.000357828 1.00047)
(0 0.000282312 1.00049)
(0 0.000124767 1.00051)
(0 1.87805e-05 1.00258)
(0 0.000137756 0.999205)
(0 0.00034573 0.999155)
(0 0.000515712 0.99924)
(0 0.000645177 0.999349)
(0 0.00072603 0.999465)
(0 0.000780998 0.999582)
(0 0.000818742 0.999696)
(0 0.000837348 0.999802)
(0 0.000840564 0.999902)
(0 0.000827779 0.999992)
(0 0.000799971 1.00007)
(0 0.000761276 1.00014)
(0 0.000709442 1.00021)
(0 0.000645821 1.00026)
(0 0.000571612 1.00031)
(0 0.000488023 1.00035)
(0 0.000398362 1.00039)
(0 0.000312169 1.00041)
(0 0.000137538 1.00044)
(0 0.000124858 0.995596)
(0 0.000317956 0.998952)
(0 0.000481042 0.999176)
(0 0.000667588 0.999302)
(0 0.000800136 0.99943)
(0 0.000880283 0.999563)
(0 0.000930953 0.999696)
(0 0.000957922 0.999824)
(0 0.000968362 0.999945)
(0 0.000961259 1.00006)
(0 0.000937575 1.00016)
(0 0.000901302 1.00025)
(0 0.000850384 1.00033)
(0 0.000788072 1.0004)
(0 0.000715207 1.00046)
(0 0.000631788 1.00051)
(0 0.000540076 1.00055)
(0 0.00044159 1.00059)
(0 0.000348206 1.00062)
(0 0.000154712 1.00065)
(0 7.29926e-05 1.00204)
(0 0.000312597 0.998855)
(0 0.000622973 0.998928)
(0 0.000830364 0.999084)
(0 0.000965103 0.99924)
(0 0.00104449 0.999394)
(0 0.0010889 0.999543)
(0 0.00111056 0.999688)
(0 0.00111033 0.999822)
(0 0.0010919 0.999945)
(0 0.00105867 1.00006)
(0 0.00100856 1.00016)
(0 0.000946774 1.00024)
(0 0.000874117 1.00032)
(0 0.000790339 1.00039)
(0 0.000696855 1.00044)
(0 0.000593541 1.00049)
(0 0.000482895 1.00053)
(0 0.000379631 1.00057)
(0 0.000168657 1.0006)
(0 0.000223649 0.995298)
(0 0.000596563 0.998632)
(0 0.00085386 0.998938)
(0 0.00104275 0.999139)
(0 0.00116034 0.999321)
(0 0.00122511 0.999494)
(0 0.0012609 0.99966)
(0 0.00126875 0.999817)
(0 0.00125443 0.999964)
(0 0.00122346 1.0001)
(0 0.00117597 1.00022)
(0 0.00111655 1.00033)
(0 0.00104345 1.00042)
(0 0.000957886 1.0005)
(0 0.000863162 1.00058)
(0 0.00075887 1.00064)
(0 0.00064642 1.00069)
(0 0.000527299 1.00073)
(0 0.000416846 1.00076)
(0 0.000186308 1.0008)
(0 0.000249789 1.00136)
(0 0.000728756 0.998469)
(0 0.0010922 0.998699)
(0 0.00126565 0.998941)
(0 0.00136072 0.999155)
(0 0.00141381 0.999354)
(0 0.00143585 0.999539)
(0 0.00143347 0.999711)
(0 0.00140829 0.999869)
(0 0.00136186 1.00001)
(0 0.00130199 1.00014)
(0 0.00122796 1.00026)
(0 0.00114269 1.00036)
(0 0.00104784 1.00045)
(0 0.000941103 1.00052)
(0 0.000824489 1.00059)
(0 0.000699143 1.00065)
(0 0.000566846 1.00069)
(0 0.000447532 1.00073)
(0 0.000200622 1.00076)
(0 0.000502781 0.994846)
(0 0.00117759 0.998282)
(0 0.00142686 0.998697)
(0 0.00153932 0.99898)
(0 0.00159951 0.999228)
(0 0.00162401 0.999453)
(0 0.00162571 0.999658)
(0 0.00160349 0.999845)
(0 0.00155908 1.00001)
(0 0.00149978 1.00017)
(0 0.00142474 1.0003)
(0 0.00133805 1.00043)
(0 0.00124124 1.00053)
(0 0.00113299 1.00063)
(0 0.00101607 1.00071)
(0 0.000889593 1.00078)
(0 0.000753948 1.00084)
(0 0.000611715 1.00089)
(0 0.000484329 1.00092)
(0 0.000217931 1.00096)
(0 0.000665875 1.00054)
(0 0.00151014 0.998064)
(0 0.00175994 0.998463)
(0 0.00182118 0.998792)
(0 0.00184281 0.999077)
(0 0.00184247 0.999332)
(0 0.00182031 0.999559)
(0 0.00177804 0.999761)
(0 0.00171934 0.999943)
(0 0.00164258 1.0001)
(0 0.00155347 1.00025)
(0 0.00145274 1.00038)
(0 0.00134109 1.00049)
(0 0.001222 1.00059)
(0 0.00109287 1.00068)
(0 0.000954056 1.00075)
(0 0.000806517 1.00081)
(0 0.000651399 1.00086)
(0 0.000515714 1.0009)
(0 0.000233025 1.00094)
(0 0.0010747 0.994234)
(0 0.00216684 0.997909)
(0 0.00218542 0.998435)
(0 0.00215161 0.998808)
(0 0.0021257 0.999131)
(0 0.00208367 0.999416)
(0 0.00202841 0.999667)
(0 0.00195966 0.99989)
(0 0.00187564 1.00008)
(0 0.00178271 1.00026)
(0 0.0016789 1.00041)
(0 0.00156398 1.00055)
(0 0.00144086 1.00067)
(0 0.00130754 1.00077)
(0 0.00116666 1.00086)
(0 0.00101809 1.00094)
(0 0.000860347 1.001)
(0 0.000695551 1.00105)
(0 0.00055231 1.00109)
(0 0.000250364 1.00114)
(0 0.00142057 0.999574)
(0 0.00273601 0.997628)
(0 0.00260533 0.998195)
(0 0.00249205 0.998621)
(0 0.00241334 0.998983)
(0 0.00233343 0.999299)
(0 0.00224609 0.999575)
(0 0.00214845 0.999815)
(0 0.00204449 1.00003)
(0 0.00193064 1.00021)
(0 0.00180848 1.00037)
(0 0.00167963 1.00051)
(0 0.00154143 1.00064)
(0 0.00139652 1.00075)
(0 0.00124329 1.00084)
(0 0.00108102 1.00092)
(0 0.000910987 1.00099)
(0 0.000733749 1.00104)
(0 0.000583347 1.00108)
(0 0.000265823 1.00113)
)
;

boundaryField
{
    movingWall
    {
        type            zeroGradient;
    }
    leftSide
    {
        type            fixedValue;
        value           uniform (0 0 1);
    }
    rightSide
    {
        type            zeroGradient;
    }
    bottomWall
    {
        type            noSlip;
    }
    bottomWall2
    {
        type            zeroGradient;
    }
    frontAndBack
    {
        type            empty;
    }
}


// ************************************************************************* //
