/*--------------------------------*- C++ -*----------------------------------*\
  =========                 |
  \\      /  F ield         | OpenFOAM: The Open Source CFD Toolbox
   \\    /   O peration     | Website:  https://openfoam.org
    \\  /    A nd           | Version:  10
     \\/     M anipulation  |
\*---------------------------------------------------------------------------*/
FoamFile
{
    format      ascii;
    class       volScalarField;
    location    "0.1";
    object      p;
}
// * * * * * * * * * * * * * * * * * * * * * * * * * * * * * * * * * * * * * //

dimensions      [0 2 -2 0 0 0 0];

internalField   nonuniform List<scalar> 
1200
(
3.30301e-10
-0.00135955
-0.00201944
-0.00250727
-0.00291617
-0.0032729
-0.00358804
-0.00386576
-0.00411199
-0.00433162
-0.00452722
-0.00470249
-0.00486009
-0.00500089
-0.00512565
-0.00523512
-0.00532961
-0.00540863
-0.00546987
-0.00553036
-0.00043392
-0.00162501
-0.00219511
-0.00267113
-0.00308166
-0.00343785
-0.00374898
-0.0040222
-0.00426576
-0.0044826
-0.0046756
-0.00484942
-0.00500561
-0.00514466
-0.00526788
-0.00537611
-0.00546958
-0.00554784
-0.00560894
-0.00566891
-0.00147262
-0.0022135
-0.00257621
-0.00296528
-0.00333886
-0.00367632
-0.00397227
-0.00423333
-0.00446529
-0.0046699
-0.00485464
-0.00502309
-0.00517417
-0.00530883
-0.00542865
-0.00553411
-0.00562533
-0.00570197
-0.00576207
-0.00582102
-0.00276084
-0.00307166
-0.00319152
-0.00344257
-0.0037247
-0.00399946
-0.00425706
-0.00449487
-0.00470457
-0.00489217
-0.00506656
-0.00522519
-0.00536711
-0.00549486
-0.00560924
-0.00571021
-0.00579789
-0.00587189
-0.00593
-0.0059877
-0.00395947
-0.00400116
-0.00392198
-0.00405041
-0.00423759
-0.00443407
-0.00463075
-0.00481584
-0.00498592
-0.00515259
-0.00531144
-0.0054548
-0.00558493
-0.00570373
-0.0058106
-0.00590539
-0.00598819
-0.00605845
-0.00611369
-0.00616986
-0.00487837
-0.00484453
-0.00466565
-0.00468931
-0.00478937
-0.00492017
-0.0050565
-0.00518414
-0.00531773
-0.00545828
-0.00559075
-0.00571325
-0.00582887
-0.00593605
-0.00603327
-0.00612033
-0.00619699
-0.00626247
-0.00631407
-0.00636828
-0.00545088
-0.00550087
-0.00539195
-0.00537661
-0.00539095
-0.00543221
-0.00549308
-0.0055745
-0.00568257
-0.00579432
-0.00589849
-0.00600026
-0.00609919
-0.006192
-0.00627764
-0.0063555
-0.00642479
-0.00648456
-0.00653185
-0.0065835
-0.00572355
-0.00586303
-0.00589581
-0.0059602
-0.00597311
-0.00596519
-0.00596729
-0.00600678
-0.00607671
-0.00615096
-0.00622857
-0.0063109
-0.00639226
-0.0064699
-0.0065431
-0.00661075
-0.00667176
-0.00672509
-0.00676744
-0.00681584
-0.00593667
-0.0060519
-0.0061181
-0.00625254
-0.00633754
-0.00638127
-0.00640745
-0.00644574
-0.00648705
-0.0065293
-0.00658249
-0.00664322
-0.0067056
-0.0067678
-0.00682822
-0.00688518
-0.00693746
-0.0069839
-0.00702078
-0.00706529
-0.00635271
-0.00640107
-0.00640696
-0.00649966
-0.00659112
-0.00667006
-0.00674441
-0.00681253
-0.00686025
-0.00690072
-0.0069443
-0.00698931
-0.0070357
-0.00708355
-0.00713134
-0.00717754
-0.00722095
-0.00726028
-0.00729141
-0.00733157
-0.00697561
-0.00700052
-0.00697226
-0.00699501
-0.00701932
-0.0070494
-0.00710343
-0.00716169
-0.00720954
-0.00725513
-0.00729788
-0.00733675
-0.00737445
-0.00741207
-0.0074494
-0.00748593
-0.00752091
-0.0075533
-0.0075787
-0.00761431
-0.00763548
-0.00766025
-0.00762565
-0.00762325
-0.00760114
-0.00757744
-0.00757967
-0.00759026
-0.00760726
-0.0076337
-0.00766272
-0.00769197
-0.0077215
-0.00775084
-0.00777981
-0.00780824
-0.00783581
-0.00786188
-0.00788193
-0.00791298
-0.00825421
-0.0082618
-0.00819277
-0.00817896
-0.00814134
-0.00810459
-0.0080836
-0.00806303
-0.00805132
-0.00805052
-0.00805661
-0.00806856
-0.00808473
-0.00810337
-0.00812339
-0.00814405
-0.0081648
-0.00818511
-0.0082003
-0.00822691
-0.00884214
-0.00882214
-0.00870042
-0.00866297
-0.00860433
-0.00856333
-0.00853507
-0.00850646
-0.00848543
-0.00847104
-0.0084624
-0.00846004
-0.0084631
-0.00847041
-0.00848091
-0.00849356
-0.00850757
-0.0085224
-0.00853309
-0.0085554
-0.00937129
-0.00933451
-0.00918577
-0.00912986
-0.00904934
-0.00899744
-0.00895706
-0.00892203
-0.00889637
-0.00887652
-0.00886183
-0.0088523
-0.0088474
-0.00884667
-0.00884952
-0.00885523
-0.00886316
-0.00887295
-0.00887957
-0.00889774
-0.00979615
-0.00975783
-0.00962042
-0.00956406
-0.00948005
-0.00942405
-0.00937477
-0.00933353
-0.00930186
-0.00927671
-0.00925752
-0.00924352
-0.00923394
-0.00922827
-0.00922603
-0.00922673
-0.00922994
-0.0092356
-0.00923882
-0.0092532
-0.0101264
-0.0100951
-0.00999077
-0.0099451
-0.00987459
-0.00982565
-0.00977853
-0.00973824
-0.00970484
-0.00967703
-0.00965477
-0.00963747
-0.00962454
-0.00961546
-0.00960976
-0.00960698
-0.00960678
-0.00960932
-0.00960996
-0.00962105
-0.0104151
-0.0103932
-0.0103245
-0.0102914
-0.0102398
-0.0102021
-0.0101638
-0.01013
-0.0101003
-0.0100743
-0.0100524
-0.0100343
-0.0100199
-0.0100089
-0.010001
-0.00999591
-0.00999333
-0.00999361
-0.00999244
-0.0100008
-0.0107089
-0.0106951
-0.0106547
-0.0106321
-0.0105974
-0.0105702
-0.0105414
-0.0105153
-0.0104913
-0.0104695
-0.0104503
-0.0104337
-0.0104198
-0.0104085
-0.0103998
-0.0103935
-0.0103895
-0.0103883
-0.010386
-0.010392
-0.0110289
-0.0110208
-0.0109988
-0.0109842
-0.0109622
-0.0109433
-0.0109228
-0.0109035
-0.0108849
-0.0108676
-0.0108517
-0.0108376
-0.0108253
-0.0108149
-0.0108065
-0.0108
-0.0107955
-0.0107934
-0.0107905
-0.0107948
-0.0113795
-0.0113748
-0.0113634
-0.0113541
-0.0113407
-0.011328
-0.0113139
-0.0113001
-0.0112863
-0.011273
-0.0112605
-0.011249
-0.0112387
-0.0112297
-0.0112222
-0.0112162
-0.0112116
-0.0112093
-0.0112062
-0.0112092
-0.0117587
-0.011756
-0.0117499
-0.0117441
-0.011736
-0.0117276
-0.0117182
-0.0117085
-0.0116986
-0.0116888
-0.0116793
-0.0116703
-0.011662
-0.0116546
-0.0116482
-0.0116429
-0.0116388
-0.0116364
-0.0116335
-0.0116356
-0.0121633
-0.0121617
-0.0121583
-0.0121546
-0.0121496
-0.0121441
-0.0121378
-0.0121312
-0.0121242
-0.0121171
-0.0121101
-0.0121033
-0.0120969
-0.012091
-0.0120858
-0.0120814
-0.0120778
-0.0120757
-0.0120732
-0.0120746
-0.0125906
-0.0125896
-0.0125876
-0.0125852
-0.012582
-0.0125784
-0.0125742
-0.0125697
-0.0125648
-0.0125598
-0.0125547
-0.0125496
-0.0125448
-0.0125403
-0.0125362
-0.0125327
-0.0125298
-0.0125281
-0.0125259
-0.0125269
-0.0130387
-0.013038
-0.0130368
-0.0130352
-0.0130331
-0.0130307
-0.0130279
-0.0130248
-0.0130214
-0.0130179
-0.0130143
-0.0130106
-0.0130071
-0.0130037
-0.0130006
-0.0129979
-0.0129956
-0.0129942
-0.0129925
-0.0129932
-0.0135067
-0.0135062
-0.0135055
-0.0135044
-0.0135031
-0.0135014
-0.0134996
-0.0134974
-0.0134951
-0.0134927
-0.0134901
-0.0134875
-0.0134849
-0.0134825
-0.0134802
-0.0134782
-0.0134765
-0.0134754
-0.0134741
-0.0134746
-0.0139939
-0.0139936
-0.0139931
-0.0139924
-0.0139915
-0.0139904
-0.0139891
-0.0139877
-0.0139861
-0.0139844
-0.0139826
-0.0139808
-0.013979
-0.0139773
-0.0139756
-0.0139742
-0.0139729
-0.0139721
-0.0139711
-0.0139715
-0.014501
-0.0145008
-0.0145005
-0.0145
-0.0144994
-0.0144987
-0.0144978
-0.0144969
-0.0144958
-0.0144947
-0.0144934
-0.0144922
-0.0144909
-0.0144897
-0.0144886
-0.0144876
-0.0144867
-0.0144861
-0.0144854
-0.0144857
-0.0150267
-0.0150266
-0.0150263
-0.015026
-0.0150256
-0.0150251
-0.0150246
-0.0150239
-0.0150232
-0.0150225
-0.0150216
-0.0150208
-0.01502
-0.0150192
-0.0150184
-0.0150177
-0.0150171
-0.0150167
-0.0150162
-0.0150165
-0.015574
-0.015574
-0.0155738
-0.0155736
-0.0155734
-0.0155731
-0.0155727
-0.0155723
-0.0155719
-0.0155714
-0.0155709
-0.0155704
-0.0155698
-0.0155693
-0.0155688
-0.0155684
-0.015568
-0.0155678
-0.0155674
-0.0155676
-0.0161386
-0.0161384
-0.0161383
-0.0161382
-0.016138
-0.0161378
-0.0161376
-0.0161374
-0.0161371
-0.0161368
-0.0161365
-0.0161362
-0.0161359
-0.0161356
-0.0161353
-0.0161351
-0.0161349
-0.0161348
-0.0161346
-0.0161348
-0.0167291
-0.0167291
-0.0167291
-0.0167291
-0.016729
-0.016729
-0.0167289
-0.0167288
-0.0167287
-0.0167285
-0.0167284
-0.0167283
-0.0167281
-0.016728
-0.0167279
-0.0167278
-0.0167277
-0.0167277
-0.0167276
-0.0167278
-0.0173327
-0.0173325
-0.0173325
-0.0173324
-0.0173324
-0.0173324
-0.0173324
-0.0173324
-0.0173324
-0.0173324
-0.0173324
-0.0173324
-0.0173325
-0.0173325
-0.0173325
-0.0173326
-0.0173326
-0.0173327
-0.0173328
-0.0173329
-0.0179691
-0.0179693
-0.0179694
-0.0179695
-0.0179696
-0.0179697
-0.0179699
-0.01797
-0.0179701
-0.0179703
-0.0179704
-0.0179706
-0.0179708
-0.0179709
-0.0179711
-0.0179713
-0.0179714
-0.0179716
-0.0179717
-0.0179719
-0.0186127
-0.0186127
-0.0186127
-0.0186128
-0.0186129
-0.0186132
-0.0186134
-0.0186137
-0.018614
-0.0186144
-0.0186147
-0.0186151
-0.0186154
-0.0186157
-0.0186161
-0.0186164
-0.0186167
-0.018617
-0.0186172
-0.0186175
-0.0192873
-0.0192875
-0.0192878
-0.0192881
-0.0192885
-0.0192889
-0.0192893
-0.0192898
-0.0192902
-0.0192907
-0.0192913
-0.0192918
-0.0192923
-0.0192927
-0.0192932
-0.0192936
-0.019294
-0.0192943
-0.0192946
-0.0192949
-0.0199699
-0.0199704
-0.0199709
-0.0199717
-0.0199725
-0.0199733
-0.0199742
-0.019975
-0.0199759
-0.0199767
-0.0199775
-0.0199783
-0.019979
-0.0199796
-0.0199802
-0.0199808
-0.0199813
-0.0199817
-0.0199821
-0.0199825
-0.0206331
-0.0206331
-0.0206339
-0.0206347
-0.0206356
-0.0206366
-0.0206377
-0.0206387
-0.0206398
-0.0206408
-0.0206417
-0.0206426
-0.0206434
-0.0206442
-0.0206448
-0.0206453
-0.0206458
-0.0206461
-0.0206464
-0.0206467
-0.0212847
-0.0212884
-0.0212915
-0.0212941
-0.0212964
-0.0212984
-0.0213002
-0.0213018
-0.0213032
-0.0213045
-0.0213056
-0.0213065
-0.0213073
-0.021308
-0.0213085
-0.0213089
-0.0213092
-0.0213093
-0.0213093
-0.0213093
-0.0217791
-0.0217839
-0.0217873
-0.0217905
-0.0217935
-0.0217962
-0.0217985
-0.0218006
-0.0218024
-0.0218039
-0.0218051
-0.0218061
-0.0218069
-0.0218075
-0.021808
-0.0218082
-0.0218083
-0.0218081
-0.0218079
-0.021807
-0.00406556
-0.00399284
-0.00396444
-0.00393282
-0.00391961
-0.0039169
-0.00392462
-0.0039404
-0.00396192
-0.00398818
-0.00401808
-0.00405074
-0.00408527
-0.00412073
-0.0041561
-0.00419026
-0.00422201
-0.00425013
-0.00427332
-0.00428988
-0.00371713
-0.0037791
-0.00381002
-0.00385432
-0.00387537
-0.00389153
-0.00391002
-0.00393085
-0.00395548
-0.00398397
-0.00401577
-0.00405022
-0.00408644
-0.00412349
-0.00416029
-0.00419572
-0.00422857
-0.00425762
-0.00428173
-0.00429975
-0.00370565
-0.0037173
-0.00373305
-0.00376999
-0.00380336
-0.00384043
-0.00387396
-0.00390653
-0.00393976
-0.00397434
-0.00401085
-0.00404917
-0.00408876
-0.00412881
-0.00416829
-0.00420606
-0.00424094
-0.00427172
-0.00429744
-0.00431735
-0.00378693
-0.00379258
-0.00380449
-0.00379958
-0.0038125
-0.00382947
-0.00385499
-0.0038872
-0.00392347
-0.00396295
-0.00400473
-0.00404811
-0.00409237
-0.00413664
-0.00417989
-0.00422095
-0.00425866
-0.00429188
-0.00431977
-0.00434189
-0.00363387
-0.0036631
-0.00368387
-0.00372809
-0.00376428
-0.00379826
-0.00383335
-0.00386949
-0.00390953
-0.00395325
-0.00399991
-0.00404856
-0.00409807
-0.00414734
-0.00419518
-0.00424032
-0.00428151
-0.00431773
-0.00434814
-0.00437269
-0.00374143
-0.00371559
-0.00371617
-0.00371068
-0.00372497
-0.00375705
-0.00379524
-0.00384036
-0.00388939
-0.00394111
-0.0039951
-0.00405048
-0.00410625
-0.00416129
-0.00421441
-0.00426426
-0.0043095
-0.00434908
-0.00438218
-0.00440924
-0.00353441
-0.00359369
-0.00363268
-0.00367197
-0.00370712
-0.00373495
-0.00377224
-0.00381858
-0.00387152
-0.00392991
-0.00399144
-0.00405437
-0.0041173
-0.00417888
-0.00423788
-0.00429296
-0.00434266
-0.00438584
-0.00442169
-0.00445123
-0.00349473
-0.00349703
-0.00350654
-0.00355291
-0.00360133
-0.00366127
-0.00372395
-0.00378608
-0.00385153
-0.00391983
-0.00399015
-0.00406138
-0.00413204
-0.00420069
-0.00426598
-0.0043266
-0.00438102
-0.00442797
-0.00446661
-0.00449864
-0.00347492
-0.00350285
-0.00353626
-0.00354032
-0.00356676
-0.00361574
-0.00367586
-0.0037487
-0.00382748
-0.00390845
-0.00399025
-0.00407146
-0.00415083
-0.00422712
-0.00429905
-0.00436538
-0.00442464
-0.00447546
-0.00451697
-0.00455157
-0.0032614
-0.00329649
-0.00334831
-0.00342312
-0.00350016
-0.00356749
-0.00364207
-0.00372408
-0.00381107
-0.00390223
-0.00399456
-0.00408579
-0.00417426
-0.00425851
-0.00433727
-0.00440941
-0.00447353
-0.00452826
-0.00457269
-0.00460996
-0.0032208
-0.00322765
-0.00324813
-0.0033036
-0.00337596
-0.00347352
-0.00358116
-0.0036874
-0.00379404
-0.0038999
-0.00400405
-0.00410563
-0.00420317
-0.00429533
-0.00438088
-0.00445873
-0.00452764
-0.00458622
-0.00463355
-0.0046735
-0.00307728
-0.00312647
-0.00319066
-0.00325155
-0.00332931
-0.00342774
-0.00353589
-0.00365541
-0.00377858
-0.00389985
-0.00401777
-0.00413077
-0.00423777
-0.00433784
-0.00443001
-0.00451337
-0.00458688
-0.00464915
-0.00469923
-0.00474178
-0.00282692
-0.00287362
-0.00295602
-0.00308091
-0.00322807
-0.00336619
-0.00350344
-0.00364088
-0.00377585
-0.00390939
-0.00403898
-0.00416241
-0.0042785
-0.00438619
-0.00448468
-0.00457325
-0.00465106
-0.00471679
-0.00476944
-0.00481446
-0.00268115
-0.00273791
-0.00282504
-0.0029561
-0.00310803
-0.00327729
-0.00345254
-0.00361811
-0.00377604
-0.00392634
-0.00406813
-0.00420157
-0.00432599
-0.00444065
-0.00454494
-0.00463827
-0.00471999
-0.00478888
-0.00484389
-0.00489125
-0.0024156
-0.0025288
-0.00269349
-0.00287834
-0.00306141
-0.00324734
-0.00342852
-0.00360835
-0.0037839
-0.00394918
-0.00410386
-0.00424757
-0.00438002
-0.00450117
-0.00461072
-0.00470832
-0.00479348
-0.00486514
-0.00492226
-0.00497184
-0.00206029
-0.00222977
-0.00246103
-0.00271915
-0.00297538
-0.00320731
-0.00341989
-0.003621
-0.00380841
-0.00398447
-0.00414909
-0.00430117
-0.0044407
-0.00456762
-0.00468183
-0.00478314
-0.00487124
-0.00494525
-0.00500415
-0.00505588
-0.00173806
-0.00201517
-0.00232365
-0.00262075
-0.00289824
-0.00315896
-0.00340693
-0.00363314
-0.00383968
-0.00402971
-0.00420362
-0.00436298
-0.00450838
-0.00464003
-0.0047581
-0.00486248
-0.00495297
-0.00502886
-0.00508914
-0.00514295
-0.00133523
-0.00178671
-0.00221051
-0.00257219
-0.00288156
-0.0031639
-0.00342295
-0.00366151
-0.00388232
-0.00408327
-0.00426602
-0.00443222
-0.0045826
-0.00471813
-0.00483925
-0.00494599
-0.00503833
-0.00511562
-0.00517678
-0.00523263
-0.000868941
-0.00155049
-0.0020786
-0.00250035
-0.00286171
-0.00317871
-0.00345901
-0.00371267
-0.00394175
-0.00414929
-0.00433822
-0.00450907
-0.00466312
-0.00480158
-0.00492488
-0.00503327
-0.00512689
-0.00520517
-0.00526666
-0.00532448
-0.0004137
-0.00139731
-0.00200864
-0.00246786
-0.00285826
-0.00320067
-0.00350438
-0.0037735
-0.00401212
-0.00422666
-0.00441979
-0.00459343
-0.00474984
-0.00489005
-0.00501457
-0.00512387
-0.00521823
-0.00529711
-0.00535846
-0.00541803
)
;

boundaryField
{
    movingWall
    {
        type            zeroGradient;
    }
    leftSide
    {
        type            zeroGradient;
    }
    rightSide
    {
        type            zeroGradient;
    }
    bottomWall
    {
        type            zeroGradient;
    }
    bottomWall2
    {
        type            zeroGradient;
    }
    frontAndBack
    {
        type            empty;
    }
}


// ************************************************************************* //
