/*--------------------------------*- C++ -*----------------------------------*\
  =========                 |
  \\      /  F ield         | OpenFOAM: The Open Source CFD Toolbox
   \\    /   O peration     | Website:  https://openfoam.org
    \\  /    A nd           | Version:  10
     \\/     M anipulation  |
\*---------------------------------------------------------------------------*/
FoamFile
{
    format      ascii;
    class       surfaceScalarField;
    location    "0.1";
    object      phi;
}
// * * * * * * * * * * * * * * * * * * * * * * * * * * * * * * * * * * * * * //

dimensions      [0 3 -1 0 0 0 0];

internalField   nonuniform List<scalar> 
2320
(
1.63598e-07
3.42428e-05
-3.44064e-05
1.43556e-07
3.57932e-05
-3.57731e-05
1.35797e-07
3.71382e-05
-3.71305e-05
1.29738e-07
3.85364e-05
-3.85304e-05
1.23718e-07
3.99848e-05
-3.99788e-05
1.17303e-07
4.14851e-05
-4.14787e-05
1.1066e-07
4.30394e-05
-4.30327e-05
1.03994e-07
4.46497e-05
-4.4643e-05
9.71839e-08
4.63186e-05
-4.63118e-05
9.02663e-08
4.80484e-05
-4.80415e-05
8.32518e-08
4.98415e-05
-4.98345e-05
7.60527e-08
5.17005e-05
-5.16933e-05
6.86775e-08
5.36277e-05
-5.36204e-05
6.11526e-08
5.56258e-05
-5.56183e-05
5.34632e-08
5.76975e-05
-5.76898e-05
4.5591e-08
5.98454e-05
-5.98376e-05
3.75272e-08
6.20726e-05
-6.20646e-05
2.92576e-08
6.4382e-05
-6.43737e-05
2.06152e-08
6.67766e-05
-6.67679e-05
6.92601e-05
-6.92514e-05
2.25594e-07
3.40172e-05
1.93688e-07
3.58251e-05
1.715e-07
3.71604e-05
1.57713e-07
3.85502e-05
1.46961e-07
3.99956e-05
1.37245e-07
4.14949e-05
1.27952e-07
4.30487e-05
1.18819e-07
4.46588e-05
1.09863e-07
4.63275e-05
1.01225e-07
4.80571e-05
9.26785e-08
4.98501e-05
8.41249e-08
5.1709e-05
7.55968e-08
5.36363e-05
6.70455e-08
5.56344e-05
5.84164e-08
5.77061e-05
4.96828e-08
5.98542e-05
4.08095e-08
6.20815e-05
3.17397e-08
6.43911e-05
2.25754e-08
6.67858e-05
6.92696e-05
2.70513e-07
3.37466e-05
2.43948e-07
3.58516e-05
2.16831e-07
3.71875e-05
1.93342e-07
3.85737e-05
1.74177e-07
4.00148e-05
1.58763e-07
4.15103e-05
1.45822e-07
4.30616e-05
1.34125e-07
4.46705e-05
1.23358e-07
4.63383e-05
1.13016e-07
4.80674e-05
1.02781e-07
4.98603e-05
9.27742e-08
5.1719e-05
8.2979e-08
5.36461e-05
7.32812e-08
5.56441e-05
6.36244e-08
5.77157e-05
5.39625e-08
5.98638e-05
4.42385e-08
6.20912e-05
3.44192e-08
6.44009e-05
2.44455e-08
6.67957e-05
6.92798e-05
2.89823e-07
3.34568e-05
2.76475e-07
3.5865e-05
2.49492e-07
3.72145e-05
2.24514e-07
3.85987e-05
2.02574e-07
4.00367e-05
1.8313e-07
4.15297e-05
1.65948e-07
4.30788e-05
1.50903e-07
4.46855e-05
1.37514e-07
4.63517e-05
1.24906e-07
4.808e-05
1.12936e-07
4.98723e-05
1.01542e-07
5.17304e-05
9.0474e-08
5.36571e-05
7.96136e-08
5.56549e-05
6.89145e-08
5.77264e-05
5.83093e-08
5.98744e-05
4.77277e-08
6.21018e-05
3.71077e-08
6.44115e-05
2.6345e-08
6.68065e-05
6.92907e-05
2.9002e-07
3.31668e-05
2.89154e-07
3.58658e-05
2.68615e-07
3.7235e-05
2.45337e-07
3.8622e-05
2.23032e-07
4.0059e-05
2.02948e-07
4.15498e-05
1.8457e-07
4.30972e-05
1.6787e-07
4.47022e-05
1.52096e-07
4.63675e-05
1.37185e-07
4.80949e-05
1.2339e-07
4.98861e-05
1.10412e-07
5.17434e-05
9.79572e-08
5.36696e-05
8.59161e-08
5.5667e-05
7.41787e-08
5.77382e-05
6.26357e-08
5.9886e-05
5.11966e-08
6.21132e-05
3.97706e-08
6.44229e-05
2.8251e-08
6.6818e-05
6.93024e-05
2.91914e-07
3.28749e-05
2.92349e-07
3.58654e-05
2.79559e-07
3.72478e-05
2.61255e-07
3.86403e-05
2.40137e-07
4.00801e-05
2.19022e-07
4.15709e-05
1.99353e-07
4.31168e-05
1.81353e-07
4.47202e-05
1.64283e-07
4.63845e-05
1.48303e-07
4.81109e-05
1.33307e-07
4.99011e-05
1.18967e-07
5.17578e-05
1.05237e-07
5.36833e-05
9.20605e-08
5.56801e-05
7.93026e-08
5.77509e-05
6.68407e-08
5.98984e-05
5.4565e-08
6.21255e-05
4.23622e-08
6.44351e-05
3.01241e-08
6.68302e-05
6.93147e-05
3.0234e-07
3.25726e-05
2.9667e-07
3.58711e-05
2.81564e-07
3.72629e-05
2.67322e-07
3.86545e-05
2.51536e-07
4.00959e-05
2.32782e-07
4.15897e-05
2.13349e-07
4.31363e-05
1.93872e-07
4.47397e-05
1.75226e-07
4.64032e-05
1.58044e-07
4.81281e-05
1.41888e-07
4.99172e-05
1.26496e-07
5.17731e-05
1.11812e-07
5.3698e-05
9.77087e-08
5.56942e-05
8.40627e-08
5.77646e-05
7.07728e-08
5.99117e-05
5.77298e-08
6.21386e-05
4.4814e-08
6.4448e-05
3.19119e-08
6.68432e-05
6.93277e-05
3.17039e-07
3.22555e-05
3.10595e-07
3.58775e-05
2.86858e-07
3.72867e-05
2.68135e-07
3.86732e-05
2.52e-07
4.0112e-05
2.36444e-07
4.16052e-05
2.20209e-07
4.31525e-05
2.02326e-07
4.47576e-05
1.84212e-07
4.64213e-05
1.66515e-07
4.81458e-05
1.49372e-07
4.99344e-05
1.33034e-07
5.17895e-05
1.17491e-07
5.37135e-05
1.02594e-07
5.57091e-05
8.82168e-08
5.7779e-05
7.42428e-08
5.99257e-05
6.05535e-08
6.21522e-05
4.70286e-08
6.44616e-05
3.35477e-08
6.68566e-05
6.93412e-05
3.25422e-07
3.19301e-05
3.28068e-07
3.58749e-05
3.04241e-07
3.73105e-05
2.80108e-07
3.86974e-05
2.5774e-07
4.01344e-05
2.39035e-07
4.16239e-05
2.21691e-07
4.31698e-05
2.04731e-07
4.47746e-05
1.88088e-07
4.64379e-05
1.71236e-07
4.81626e-05
1.54368e-07
4.99512e-05
1.37881e-07
5.1806e-05
1.21908e-07
5.37295e-05
1.06482e-07
5.57246e-05
9.15693e-08
5.77939e-05
7.70783e-08
5.99402e-05
6.28949e-08
6.21664e-05
4.8895e-08
6.44756e-05
3.49532e-08
6.68706e-05
6.93551e-05
3.33712e-07
3.15964e-05
3.43566e-07
3.5865e-05
3.24081e-07
3.733e-05
3.0036e-07
3.87211e-05
2.75478e-07
4.01593e-05
2.51867e-07
4.16475e-05
2.29432e-07
4.31923e-05
2.09256e-07
4.47947e-05
1.90897e-07
4.64563e-05
1.73444e-07
4.81801e-05
1.56653e-07
4.9968e-05
1.40346e-07
5.18223e-05
1.24428e-07
5.37454e-05
1.08916e-07
5.57401e-05
9.38099e-08
5.7809e-05
7.90622e-08
5.99549e-05
6.4593e-08
6.21809e-05
5.0294e-08
6.44899e-05
3.60463e-08
6.68848e-05
6.93694e-05
3.55171e-07
3.12412e-05
3.62613e-07
3.58576e-05
3.38341e-07
3.73543e-05
3.12431e-07
3.8747e-05
2.87663e-07
4.01841e-05
2.63027e-07
4.16722e-05
2.38722e-07
4.32166e-05
2.16207e-07
4.48172e-05
1.95327e-07
4.64772e-05
1.76029e-07
4.81994e-05
1.58177e-07
4.99859e-05
1.41375e-07
5.18391e-05
1.25321e-07
5.37615e-05
1.09825e-07
5.57556e-05
9.47502e-08
5.78241e-05
8.00006e-08
5.99697e-05
6.54863e-08
6.21954e-05
5.1105e-08
6.45042e-05
3.67447e-08
6.68992e-05
6.93837e-05
3.76588e-07
3.08646e-05
3.77496e-07
3.58567e-05
3.4373e-07
3.7388e-05
3.11871e-07
3.87789e-05
2.85098e-07
4.02108e-05
2.60271e-07
4.1697e-05
2.37268e-07
4.32396e-05
2.1581e-07
4.48387e-05
1.95341e-07
4.64977e-05
1.76056e-07
4.82187e-05
1.57973e-07
5.0004e-05
1.40943e-07
5.18561e-05
1.24806e-07
5.37776e-05
1.09363e-07
5.5771e-05
9.4429e-08
5.7839e-05
7.98483e-08
5.99843e-05
6.54933e-08
6.22098e-05
5.1244e-08
6.45185e-05
3.69799e-08
6.69134e-05
6.9398e-05
3.66749e-07
3.04979e-05
3.63075e-07
3.58603e-05
3.28292e-07
3.74228e-05
2.96625e-07
3.88105e-05
2.69848e-07
4.02376e-05
2.45757e-07
4.17211e-05
2.24603e-07
4.32607e-05
2.05255e-07
4.48581e-05
1.87031e-07
4.65159e-05
1.6975e-07
4.8236e-05
1.53194e-07
5.00205e-05
1.37271e-07
5.1872e-05
1.21932e-07
5.3793e-05
1.07097e-07
5.57859e-05
9.26634e-08
5.78534e-05
7.85203e-08
5.99984e-05
6.45563e-08
6.22237e-05
5.06582e-08
6.45324e-05
3.67033e-08
6.69274e-05
6.9412e-05
3.12884e-07
3.0185e-05
3.07704e-07
3.58655e-05
2.8331e-07
3.74472e-05
2.61404e-07
3.88324e-05
2.41021e-07
4.0258e-05
2.21885e-07
4.17402e-05
2.04492e-07
4.32781e-05
1.88152e-07
4.48744e-05
1.72724e-07
4.65313e-05
1.58001e-07
4.82507e-05
1.43725e-07
5.00348e-05
1.29766e-07
5.1886e-05
1.16045e-07
5.38067e-05
1.02508e-07
5.57994e-05
8.91165e-08
5.78668e-05
7.58221e-08
6.00117e-05
6.25685e-08
6.2237e-05
4.92854e-08
6.45457e-05
3.58731e-08
6.69408e-05
6.94255e-05
2.31664e-07
2.99533e-05
2.27431e-07
3.58698e-05
2.18185e-07
3.74565e-05
2.09716e-07
3.88409e-05
1.99503e-07
4.02682e-05
1.8868e-07
4.17511e-05
1.77546e-07
4.32893e-05
1.66028e-07
4.48859e-05
1.5443e-07
4.65429e-05
1.42799e-07
4.82623e-05
1.31134e-07
5.00465e-05
1.19429e-07
5.18977e-05
1.07655e-07
5.38184e-05
9.57895e-08
5.58113e-05
8.38163e-08
5.78788e-05
7.17216e-08
6.00238e-05
5.9489e-08
6.22492e-05
4.70924e-08
6.45581e-05
3.44646e-08
6.69534e-05
6.94383e-05
1.5006e-07
2.98033e-05
1.48407e-07
3.58714e-05
1.52014e-07
3.74528e-05
1.54471e-07
3.88384e-05
1.53485e-07
4.02692e-05
1.50645e-07
4.17539e-05
1.46051e-07
4.32939e-05
1.40012e-07
4.48919e-05
1.32911e-07
4.655e-05
1.24944e-07
4.82703e-05
1.16302e-07
5.00551e-05
1.07125e-07
5.19069e-05
9.74998e-08
5.38281e-05
8.74871e-08
5.58213e-05
7.71243e-08
5.78891e-05
6.64356e-08
6.00345e-05
5.54375e-08
6.22602e-05
4.41395e-08
6.45694e-05
3.25045e-08
6.69651e-05
6.94502e-05
8.6199e-08
2.97171e-05
8.7472e-08
3.58701e-05
9.8388e-08
3.74419e-05
1.06986e-07
3.88298e-05
1.12005e-07
4.02642e-05
1.14641e-07
4.17513e-05
1.14951e-07
4.32936e-05
1.13372e-07
4.48935e-05
1.10218e-07
4.65532e-05
1.05715e-07
4.82748e-05
1.00084e-07
5.00607e-05
9.35072e-08
5.19135e-05
8.61313e-08
5.38354e-05
7.8075e-08
5.58293e-05
6.94292e-08
5.78978e-05
6.02619e-08
6.00437e-05
5.06258e-08
6.22699e-05
4.05651e-08
6.45794e-05
3.00732e-08
6.69756e-05
6.9461e-05
4.47208e-08
2.96723e-05
4.81424e-08
3.58667e-05
6.10792e-08
3.7429e-05
7.15814e-08
3.88193e-05
7.93038e-08
4.02565e-05
8.47427e-08
4.17458e-05
8.79402e-08
4.32904e-05
8.92471e-08
4.48922e-05
8.88723e-08
4.65535e-05
8.7012e-08
4.82766e-05
8.3852e-08
5.00639e-05
7.95511e-08
5.19178e-05
7.42511e-08
5.38407e-05
6.80764e-08
5.58355e-05
6.1134e-08
5.79047e-05
5.35141e-08
6.00513e-05
4.52929e-08
6.22781e-05
3.65415e-08
6.45882e-05
2.72831e-08
6.69848e-05
6.94707e-05
2.15777e-08
2.96508e-05
2.60102e-08
3.58623e-05
3.77023e-08
3.74173e-05
4.74992e-08
3.88095e-05
5.55249e-08
4.02484e-05
6.17481e-08
4.17396e-05
6.61807e-08
4.32859e-05
6.89923e-08
4.48894e-05
7.02795e-08
4.65522e-05
7.01682e-08
4.82768e-05
6.87813e-08
5.00653e-05
6.62343e-08
5.19203e-05
6.26377e-08
5.38443e-05
5.80944e-08
5.584e-05
5.27002e-08
5.79101e-05
4.65427e-08
6.00574e-05
3.97024e-08
6.22849e-05
3.22614e-08
6.45956e-05
2.42647e-08
6.69928e-05
6.94791e-05
1.01858e-08
2.96406e-05
1.47094e-08
3.58578e-05
2.39532e-08
3.74081e-05
3.19919e-08
3.88015e-05
3.90474e-08
4.02414e-05
4.48623e-08
4.17338e-05
4.94156e-08
4.32814e-05
5.27282e-08
4.48861e-05
5.48088e-08
4.65502e-05
5.57032e-08
4.82759e-05
5.54665e-08
5.00655e-05
5.41623e-08
5.19216e-05
5.18602e-08
5.38466e-05
4.86323e-08
5.58433e-05
4.45517e-08
5.79142e-05
3.96912e-08
6.00623e-05
3.41226e-08
6.22905e-05
2.79256e-08
6.46018e-05
2.11577e-08
6.69996e-05
6.94864e-05
5.07847e-09
2.96355e-05
9.15384e-09
3.58537e-05
1.59909e-08
3.74012e-05
2.21775e-08
3.87953e-05
2.78631e-08
4.02357e-05
3.277e-08
4.17289e-05
3.68532e-08
4.32773e-05
4.00559e-08
4.48829e-05
4.23376e-08
4.65479e-05
4.36863e-08
4.82745e-05
4.41046e-08
5.00651e-05
4.36099e-08
5.19221e-05
4.22323e-08
5.3848e-05
4.00111e-08
5.58455e-05
3.6993e-08
5.79172e-05
3.32311e-08
6.00661e-05
2.87826e-08
6.22949e-05
2.37166e-08
6.46069e-05
1.80956e-08
6.70052e-05
6.94925e-05
2.88089e-09
2.96326e-05
6.28587e-09
3.58503e-05
1.12153e-08
3.73963e-05
1.58437e-08
3.87907e-05
2.02261e-08
4.02313e-05
2.41471e-08
4.1725e-05
2.75502e-08
4.32739e-05
3.03548e-08
4.48801e-05
3.25017e-08
4.65457e-05
3.39494e-08
4.82731e-05
3.46699e-08
5.00644e-05
3.46504e-08
5.19221e-05
3.38908e-08
5.38488e-05
3.24033e-08
5.5847e-05
3.02108e-08
5.79194e-05
2.7346e-08
6.00689e-05
2.38499e-08
6.22984e-05
1.9777e-08
6.4611e-05
1.51895e-08
6.70098e-05
6.94976e-05
1.88583e-09
2.96307e-05
4.60002e-09
3.58476e-05
8.14775e-09
3.73927e-05
1.15788e-08
3.87873e-05
1.48876e-08
4.0228e-05
1.79305e-08
4.17219e-05
2.0651e-08
4.32712e-05
2.29729e-08
4.48778e-05
2.48359e-08
4.65439e-05
2.61891e-08
4.82717e-05
2.69921e-08
5.00636e-05
2.72161e-08
5.19219e-05
2.68438e-08
5.38492e-05
2.58688e-08
5.5848e-05
2.42962e-08
5.7921e-05
2.2142e-08
6.00711e-05
1.94321e-08
6.23011e-05
1.62063e-08
6.46142e-05
1.25217e-08
6.70135e-05
6.95018e-05
1.3598e-09
2.96294e-05
3.46092e-09
3.58455e-05
6.03511e-09
3.73902e-05
8.57619e-09
3.87847e-05
1.10532e-08
4.02255e-05
1.33769e-08
4.17196e-05
1.5498e-08
4.3269e-05
1.73547e-08
4.48759e-05
1.8894e-08
4.65423e-05
2.00669e-08
4.82705e-05
2.08317e-08
5.00628e-05
2.11543e-08
5.19216e-05
2.10093e-08
5.38493e-05
2.03806e-08
5.58486e-05
1.92619e-08
5.79221e-05
1.76574e-08
6.00727e-05
1.55813e-08
6.23032e-05
1.30602e-08
6.46167e-05
1.01444e-08
6.70164e-05
6.95051e-05
1.01874e-09
2.96284e-05
2.61696e-09
3.58439e-05
4.50213e-09
3.73883e-05
6.38653e-09
3.87828e-05
8.23503e-09
4.02237e-05
9.99276e-09
4.17178e-05
1.16204e-08
4.32674e-05
1.30713e-08
4.48745e-05
1.43022e-08
4.65411e-05
1.52717e-08
4.82696e-05
1.59419e-08
5.00621e-05
1.62799e-08
5.19212e-05
1.62585e-08
5.38493e-05
1.5858e-08
5.5849e-05
1.50661e-08
5.79229e-05
1.38797e-08
6.00739e-05
1.2305e-08
6.23048e-05
1.03582e-08
6.46187e-05
8.08206e-09
6.70187e-05
6.95077e-05
7.75951e-10
2.96276e-05
1.97593e-09
3.58427e-05
3.36263e-09
3.73869e-05
4.75887e-09
3.87814e-05
6.13411e-09
4.02223e-05
7.45383e-09
4.17165e-05
8.68807e-09
4.32662e-05
9.80269e-09
4.48733e-05
1.07642e-08
4.65401e-05
1.15392e-08
4.82688e-05
1.20962e-08
5.00616e-05
1.24064e-08
5.19209e-05
1.24449e-08
5.38493e-05
1.21915e-08
5.58492e-05
1.16323e-08
5.79235e-05
1.07604e-08
6.00747e-05
9.57668e-09
6.2306e-05
8.0903e-09
6.46201e-05
6.33626e-09
6.70204e-05
6.95098e-05
5.76549e-10
2.9627e-05
1.47282e-09
3.58418e-05
2.49622e-09
3.73859e-05
3.53011e-09
3.87804e-05
4.55089e-09
4.02213e-05
5.53607e-09
4.17155e-05
6.46366e-09
4.32653e-05
7.30903e-09
4.48725e-05
8.04695e-09
4.65394e-05
8.65178e-09
4.82682e-05
9.09837e-09
5.00611e-05
9.36301e-09
5.19207e-05
9.42436e-09
5.38492e-05
9.26443e-09
5.58494e-05
8.86962e-09
5.79239e-05
8.23188e-09
6.00754e-05
7.34949e-09
6.23069e-05
6.22678e-09
6.46213e-05
4.89164e-09
6.70218e-05
6.95114e-05
4.49423e-10
2.96266e-05
1.10738e-09
3.58411e-05
1.85566e-09
3.73851e-05
2.61409e-09
3.87796e-05
3.36495e-09
4.02205e-05
4.09295e-09
4.17148e-05
4.78201e-09
4.32646e-05
5.41434e-09
4.48719e-05
5.97119e-09
4.65388e-05
6.43322e-09
4.82677e-05
6.78103e-09
5.00608e-05
6.99584e-09
5.19204e-05
7.06025e-09
5.38492e-05
6.95912e-09
5.58495e-05
6.68038e-09
5.79241e-05
6.21613e-09
6.00758e-05
5.56354e-09
6.23075e-05
4.7239e-09
6.46221e-05
3.7192e-09
6.70228e-05
6.95126e-05
2.97837e-10
2.96263e-05
7.89969e-10
3.58406e-05
1.34462e-09
3.73846e-05
1.9055e-09
3.87791e-05
2.46037e-09
4.022e-05
2.99879e-09
4.17143e-05
3.50946e-09
4.32641e-05
3.97973e-09
4.48714e-05
4.39605e-09
4.65384e-05
4.74419e-09
4.82674e-05
5.00967e-09
5.00605e-05
5.17823e-09
5.19203e-05
5.23639e-09
5.38491e-05
5.17203e-09
5.58496e-05
4.97523e-09
5.79243e-05
4.63891e-09
6.00762e-05
4.16003e-09
6.2308e-05
3.53842e-09
6.46227e-05
2.79083e-09
6.70235e-05
6.95135e-05
2.86564e-10
2.9626e-05
6.27842e-10
3.58403e-05
1.01639e-09
3.73842e-05
1.41331e-09
3.87787e-05
1.80881e-09
4.02196e-05
2.19529e-09
4.17139e-05
2.56418e-09
4.32637e-05
2.90607e-09
4.48711e-05
3.2108e-09
4.65381e-05
3.46765e-09
4.82671e-05
3.66563e-09
5.00603e-05
3.79381e-09
5.19202e-05
3.84177e-09
5.38491e-05
3.80003e-09
5.58496e-05
3.66064e-09
5.79245e-05
3.41774e-09
6.00764e-05
3.06843e-09
6.23083e-05
2.6119e-09
6.46232e-05
2.06079e-09
6.70241e-05
6.95141e-05
9.01931e-11
2.96259e-05
3.69922e-10
3.584e-05
6.78787e-10
3.73839e-05
9.86611e-10
3.87784e-05
1.28862e-09
4.02193e-05
1.58013e-09
4.17136e-05
1.85599e-09
4.32634e-05
2.11021e-09
4.48708e-05
2.33613e-09
4.65379e-05
2.52651e-09
4.82669e-05
2.67374e-09
5.00602e-05
2.77002e-09
5.19201e-05
2.80775e-09
5.3849e-05
2.77992e-09
5.58496e-05
2.68054e-09
5.79246e-05
2.5052e-09
6.00766e-05
2.25157e-09
6.23086e-05
1.91891e-09
6.46235e-05
1.51625e-09
6.70245e-05
6.95146e-05
2.69121e-10
2.96256e-05
4.18936e-10
3.58398e-05
5.936e-10
3.73837e-05
7.80717e-10
3.87782e-05
9.72925e-10
4.02191e-05
1.16529e-09
4.17134e-05
1.35229e-09
4.32632e-05
1.52814e-09
4.48706e-05
1.68681e-09
4.65377e-05
1.82211e-09
4.82668e-05
1.92778e-09
5.00601e-05
1.99763e-09
5.192e-05
2.02564e-09
5.3849e-05
2.00634e-09
5.58497e-05
1.93496e-09
5.79246e-05
1.80784e-09
6.00767e-05
1.6231e-09
6.23088e-05
1.37937e-09
6.46238e-05
1.08406e-09
6.70248e-05
6.9515e-05
-1.01556e-10
2.96257e-05
9.33547e-11
3.58397e-05
3.01572e-10
3.73835e-05
4.95943e-10
3.8778e-05
6.77889e-10
4.02189e-05
8.47069e-10
4.17132e-05
1.00262e-09
4.32631e-05
1.14288e-09
4.48705e-05
1.26547e-09
4.65376e-05
1.3674e-09
4.82667e-05
1.44524e-09
5.006e-05
1.49534e-09
5.19199e-05
1.51401e-09
5.3849e-05
1.49774e-09
5.58497e-05
1.44347e-09
5.79247e-05
1.34881e-09
6.00768e-05
1.21247e-09
6.23089e-05
1.03453e-09
6.46239e-05
8.18893e-10
6.7025e-05
6.95152e-05
3.31926e-10
2.96254e-05
3.65691e-10
3.58396e-05
4.08691e-10
3.73834e-05
4.76099e-10
3.87779e-05
5.58592e-10
4.02188e-05
6.49573e-10
4.17131e-05
7.43195e-10
4.3263e-05
8.34148e-10
4.48704e-05
9.1762e-10
4.65375e-05
9.89212e-10
4.82666e-05
1.04485e-09
5.00599e-05
1.08076e-09
5.19199e-05
1.09349e-09
5.3849e-05
1.07994e-09
5.58497e-05
1.03747e-09
5.79247e-05
9.63953e-10
6.00769e-05
8.58108e-10
6.2309e-05
7.18194e-10
6.46241e-05
5.49402e-10
6.70252e-05
6.95154e-05
-1.04257e-10
2.96255e-05
7.14153e-11
3.58394e-05
2.5069e-10
3.73833e-05
4.01493e-10
3.87778e-05
5.29523e-10
4.02187e-05
6.39315e-10
4.1713e-05
7.3343e-10
4.32629e-05
8.13001e-10
4.48703e-05
8.78164e-10
4.65375e-05
9.28339e-10
4.82666e-05
9.6247e-10
5.00599e-05
9.79223e-10
5.19199e-05
9.77164e-10
5.3849e-05
9.54947e-10
5.58497e-05
9.11485e-10
5.79248e-05
8.46224e-10
6.0077e-05
7.58891e-10
6.23091e-05
6.50992e-10
6.46242e-05
5.21707e-10
6.70253e-05
6.95156e-05
1.09718e-10
2.96254e-05
1.61434e-10
3.58394e-05
2.21223e-10
3.73832e-05
2.9841e-10
3.87777e-05
3.8339e-10
4.02186e-05
4.68292e-10
4.17129e-05
5.47226e-10
4.32628e-05
6.16335e-10
4.48702e-05
6.73017e-10
4.65374e-05
7.15473e-10
4.82665e-05
7.42418e-10
5.00599e-05
7.52868e-10
5.19199e-05
7.45988e-10
5.3849e-05
7.21004e-10
5.58497e-05
6.77078e-10
5.79248e-05
6.13271e-10
6.0077e-05
5.2898e-10
6.23092e-05
4.20711e-10
6.46243e-05
2.93254e-10
6.70254e-05
6.95157e-05
7.23467e-10
2.96247e-05
8.371e-10
3.58393e-05
8.93866e-10
3.73832e-05
9.41971e-10
3.87777e-05
9.84979e-10
4.02186e-05
1.02079e-09
4.17129e-05
1.0483e-09
4.32628e-05
1.06622e-09
4.48702e-05
1.07329e-09
4.65374e-05
1.06853e-09
4.82665e-05
1.0513e-09
5.00599e-05
1.02131e-09
5.19199e-05
9.78676e-10
5.3849e-05
9.23837e-10
5.58498e-05
8.57648e-10
5.79249e-05
7.81201e-10
6.00771e-05
6.96039e-10
6.23093e-05
6.07641e-10
6.46244e-05
5.11328e-10
6.70255e-05
6.95159e-05
-3.00595e-10
2.9625e-05
8.91438e-11
3.58389e-05
4.40958e-10
3.73828e-05
6.99478e-10
3.87774e-05
8.74933e-10
4.02184e-05
9.85606e-10
4.17128e-05
1.04594e-09
4.32627e-05
1.06726e-09
4.48702e-05
1.05852e-09
4.65374e-05
1.02666e-09
4.82666e-05
9.76925e-10
5.006e-05
9.13218e-10
5.192e-05
8.38365e-10
5.38491e-05
7.54374e-10
5.58499e-05
6.62605e-10
5.7925e-05
5.64005e-10
6.00772e-05
4.58243e-10
6.23094e-05
3.41239e-10
6.46245e-05
2.29256e-10
6.70256e-05
6.9516e-05
1.72134e-09
2.96232e-05
1.90624e-09
3.58387e-05
1.88964e-09
3.73828e-05
1.86622e-09
3.87774e-05
1.84018e-09
4.02184e-05
1.80505e-09
4.17128e-05
1.75647e-09
4.32628e-05
1.69275e-09
4.48703e-05
1.61396e-09
4.65375e-05
1.52137e-09
4.82667e-05
1.41699e-09
5.00601e-05
1.30327e-09
5.19201e-05
1.1829e-09
5.38492e-05
1.05871e-09
5.585e-05
9.33823e-10
5.79251e-05
8.11853e-10
6.00773e-05
6.98334e-10
6.23095e-05
6.01348e-10
6.46246e-05
5.0955e-10
6.70257e-05
6.95162e-05
5.44727e-09
5.34804e-09
4.7962e-09
4.26307e-09
3.76475e-09
3.30193e-09
2.87435e-09
2.4811e-09
2.12075e-09
1.79157e-09
1.49159e-09
1.21874e-09
9.70855e-10
7.45758e-10
5.41191e-10
3.54766e-10
1.83706e-10
2.44837e-11
-1.20473e-10
-3.14651e-08
3.45908e-05
-1.93446e-08
3.58579e-05
-8.95079e-09
3.71924e-05
-3.69726e-09
3.85798e-05
-9.11168e-10
4.00159e-05
4.20384e-10
4.15043e-05
9.92185e-10
4.30472e-05
1.2697e-09
4.46469e-05
1.41836e-09
4.63059e-05
1.5116e-09
4.80264e-05
1.56886e-09
4.98109e-05
1.58994e-09
5.16617e-05
1.57154e-09
5.35812e-05
1.51113e-09
5.55721e-05
1.40831e-09
5.76369e-05
1.26408e-09
5.97784e-05
1.08108e-09
6.19995e-05
8.61432e-10
6.43031e-05
5.97747e-10
6.66924e-05
6.91704e-05
2.10512e-08
3.45861e-05
8.24002e-09
3.58707e-05
-1.02427e-09
3.72017e-05
-2.65347e-09
3.85814e-05
-1.57611e-09
4.00148e-05
9.00327e-11
4.15026e-05
1.77258e-09
4.30455e-05
3.01108e-09
4.46457e-05
3.83444e-09
4.63051e-05
4.34184e-09
4.80259e-05
4.61529e-09
4.98106e-05
4.71152e-09
5.16616e-05
4.65908e-09
5.35813e-05
4.47113e-09
5.55722e-05
4.15522e-09
5.76372e-05
3.71863e-09
5.97789e-05
3.16849e-09
6.20001e-05
2.51003e-09
6.43038e-05
1.70761e-09
6.66932e-05
6.91714e-05
1.25944e-08
3.45841e-05
1.65214e-08
3.58668e-05
1.71364e-08
3.7201e-05
1.39237e-08
3.85846e-05
1.02071e-08
4.00185e-05
8.11658e-09
4.15047e-05
7.1068e-09
4.30465e-05
6.90805e-09
4.46459e-05
7.11881e-09
4.63049e-05
7.4116e-09
4.80256e-05
7.62395e-09
4.98104e-05
7.677e-09
5.16615e-05
7.54095e-09
5.35814e-05
7.20767e-09
5.55726e-05
6.67779e-09
5.76377e-05
5.9586e-09
5.97796e-05
5.05741e-09
6.2001e-05
3.97603e-09
6.43049e-05
2.73637e-09
6.66944e-05
6.91728e-05
-2.51693e-08
3.45843e-05
-1.98293e-08
3.58615e-05
-1.1154e-08
3.71924e-05
-3.40192e-09
3.85769e-05
3.0667e-09
4.00121e-05
6.66466e-09
4.15011e-05
8.58073e-09
4.30446e-05
9.63099e-09
4.46448e-05
1.02061e-08
4.63043e-05
1.05475e-08
4.80253e-05
1.07038e-08
4.98103e-05
1.066e-08
5.16616e-05
1.03921e-08
5.35817e-05
9.8828e-09
5.55731e-05
9.12358e-09
5.76385e-05
8.11631e-09
5.97806e-05
6.87173e-09
6.20022e-05
5.40434e-09
6.43064e-05
3.74977e-09
6.66961e-05
6.91746e-05
4.82522e-08
3.4579e-05
3.72307e-08
3.58725e-05
2.33024e-08
3.72063e-05
1.57124e-08
3.85845e-05
1.14233e-08
4.00164e-05
1.03669e-08
4.15021e-05
1.10209e-08
4.30439e-05
1.20006e-08
4.46438e-05
1.28838e-08
4.63034e-05
1.34728e-08
4.80247e-05
1.3725e-08
4.981e-05
1.36523e-08
5.16616e-05
1.32638e-08
5.35821e-05
1.25656e-08
5.55738e-05
1.15616e-08
5.76395e-05
1.02578e-08
5.97819e-05
8.67435e-09
6.20038e-05
6.83501e-09
6.43082e-05
4.76557e-09
6.66981e-05
6.91769e-05
-2.86447e-08
3.45815e-05
-1.31985e-08
3.5857e-05
2.88575e-09
3.71902e-05
1.04757e-08
3.85769e-05
1.39126e-08
4.00129e-05
1.53227e-08
4.15007e-05
1.56447e-08
4.30436e-05
1.59734e-08
4.46435e-05
1.63854e-08
4.6303e-05
1.6713e-08
4.80244e-05
1.68285e-08
4.98099e-05
1.66373e-08
5.16618e-05
1.60973e-08
5.35826e-05
1.51987e-08
5.55747e-05
1.39462e-08
5.76407e-05
1.23496e-08
5.97835e-05
1.04332e-08
6.20057e-05
8.22798e-09
6.43104e-05
5.75746e-09
6.67006e-05
6.91797e-05
1.65596e-08
3.45755e-05
9.38883e-09
3.58642e-05
3.50191e-09
3.71961e-05
4.50209e-09
3.85759e-05
8.81617e-09
4.00086e-05
1.27983e-08
4.14967e-05
1.59916e-08
4.30404e-05
1.81246e-08
4.46414e-05
1.93144e-08
4.63018e-05
1.9886e-08
4.80238e-05
1.99812e-08
4.98098e-05
1.96538e-08
5.16622e-05
1.89209e-08
5.35833e-05
1.77886e-08
5.55758e-05
1.62682e-08
5.76423e-05
1.4373e-08
5.97854e-05
1.21245e-08
6.2008e-05
9.56122e-09
6.4313e-05
6.70895e-09
6.67035e-05
6.91828e-05
1.37123e-08
3.4573e-05
1.94043e-08
3.58585e-05
2.31604e-08
3.71923e-05
2.24435e-08
3.85766e-05
2.02764e-08
4.00108e-05
1.95117e-08
4.14975e-05
2.01535e-08
4.30398e-05
2.12138e-08
4.46403e-05
2.22362e-08
4.63008e-05
2.28601e-08
4.80232e-05
2.29605e-08
4.98097e-05
2.25451e-08
5.16626e-05
2.16412e-08
5.35842e-05
2.02797e-08
5.55772e-05
1.84906e-08
5.76441e-05
1.62988e-08
5.97876e-05
1.3727e-08
6.20105e-05
1.0817e-08
6.43159e-05
7.6032e-09
6.67067e-05
6.91863e-05
-2.2973e-09
3.45714e-05
9.41931e-10
3.58553e-05
5.58361e-09
3.71877e-05
1.28251e-08
3.85694e-05
1.88529e-08
4.00048e-05
2.28142e-08
4.14935e-05
2.46764e-08
4.30379e-05
2.56773e-08
4.46393e-05
2.62507e-08
4.63002e-05
2.6439e-08
4.8023e-05
2.62247e-08
4.98099e-05
2.55485e-08
5.16633e-05
2.43892e-08
5.35854e-05
2.27568e-08
5.55788e-05
2.06762e-08
5.76461e-05
1.81763e-08
5.97901e-05
1.52801e-08
6.20134e-05
1.20302e-08
6.43191e-05
8.47075e-09
6.67102e-05
6.91902e-05
9.09797e-09
3.45667e-05
1.24288e-08
3.58519e-05
1.51927e-08
3.71849e-05
1.62708e-08
3.85683e-05
1.91545e-08
4.00019e-05
2.25992e-08
4.14901e-05
2.58701e-08
4.30346e-05
2.82487e-08
4.46369e-05
2.94836e-08
4.6299e-05
2.98467e-08
4.80226e-05
2.95178e-08
4.98102e-05
2.86006e-08
5.16642e-05
2.71588e-08
5.35868e-05
2.52268e-08
5.55807e-05
2.28363e-08
5.76485e-05
2.00199e-08
5.97929e-05
1.68014e-08
6.20167e-05
1.32177e-08
6.43227e-05
9.31851e-09
6.67141e-05
6.91944e-05
1.5351e-08
3.45627e-05
1.99304e-08
3.58474e-05
2.40119e-08
3.71809e-05
2.79424e-08
3.85644e-05
2.97557e-08
4.00001e-05
3.06212e-08
4.14892e-05
3.16567e-08
4.30336e-05
3.25742e-08
4.4636e-05
3.32361e-08
4.62983e-05
3.33739e-08
4.80225e-05
3.28496e-08
4.98108e-05
3.16959e-08
5.16653e-05
2.9968e-08
5.35886e-05
2.77216e-08
5.5583e-05
2.50056e-08
5.76512e-05
2.1862e-08
5.9796e-05
1.83167e-08
6.20202e-05
1.44004e-08
6.43266e-05
1.01653e-08
6.67184e-05
6.9199e-05
7.13396e-09
3.45589e-05
1.14433e-08
3.58431e-05
1.69943e-08
3.71753e-05
2.35576e-08
3.85578e-05
2.95715e-08
3.9994e-05
3.41895e-08
4.14846e-05
3.6597e-08
4.30312e-05
3.76019e-08
4.4635e-05
3.78142e-08
4.62981e-05
3.73701e-08
4.80229e-05
3.63746e-08
4.98118e-05
3.48333e-08
5.16669e-05
3.27547e-08
5.35906e-05
3.01756e-08
5.55856e-05
2.71332e-08
5.76543e-05
2.36642e-08
5.97995e-05
1.97974e-08
6.20241e-05
1.55538e-08
6.43309e-05
1.09861e-08
6.67229e-05
6.92039e-05
1.61337e-08
3.45518e-05
2.23958e-08
3.58368e-05
2.74347e-08
3.71703e-05
3.09692e-08
3.85543e-05
3.40883e-08
3.99909e-05
3.70235e-08
4.14817e-05
3.94971e-08
4.30287e-05
4.11856e-08
4.46333e-05
4.16643e-08
4.62976e-05
4.11548e-08
4.80235e-05
3.98788e-08
4.9813e-05
3.79682e-08
5.16688e-05
3.55225e-08
5.35931e-05
3.25907e-08
5.55885e-05
2.92068e-08
5.76577e-05
2.5406e-08
5.98033e-05
2.12171e-08
6.20283e-05
1.66561e-08
6.43354e-05
1.17702e-08
6.67278e-05
6.92092e-05
1.17832e-08
3.45451e-05
2.20827e-08
3.58265e-05
3.28748e-08
3.71595e-05
3.97174e-08
3.85474e-05
4.35959e-08
3.9987e-05
4.51583e-08
4.14801e-05
4.59246e-08
4.30279e-05
4.60586e-08
4.46332e-05
4.56685e-08
4.6298e-05
4.47231e-08
4.80244e-05
4.31161e-08
4.98147e-05
4.08938e-08
5.1671e-05
3.81195e-08
5.35959e-05
3.48499e-08
5.55918e-05
3.11342e-08
5.76614e-05
2.70128e-08
5.98074e-05
2.25196e-08
6.20327e-05
1.7665e-08
6.43403e-05
1.24841e-08
6.6733e-05
6.92147e-05
2.35595e-08
3.45357e-05
3.11966e-08
3.58189e-05
3.62017e-08
3.71545e-05
4.17552e-08
3.85419e-05
4.64258e-08
3.99824e-05
4.97139e-08
4.14768e-05
5.11652e-08
4.30265e-05
5.11069e-08
4.46332e-05
5.01904e-08
4.62989e-05
4.85704e-08
4.8026e-05
4.63904e-08
4.98168e-05
4.37093e-08
5.16737e-05
4.05408e-08
5.3599e-05
3.69194e-08
5.55954e-05
3.28783e-08
5.76654e-05
2.84517e-08
5.98118e-05
2.36745e-08
6.20375e-05
1.85579e-08
6.43454e-05
1.31193e-08
6.67384e-05
6.92204e-05
2.39475e-08
3.4523e-05
3.78912e-08
3.58049e-05
4.71205e-08
3.71452e-05
5.1341e-08
3.85376e-05
5.30377e-08
3.99807e-05
5.41684e-08
4.14757e-05
5.47834e-08
4.30259e-05
5.47602e-08
4.46333e-05
5.37608e-08
4.62999e-05
5.18867e-08
4.80279e-05
4.93535e-08
4.98194e-05
4.62635e-08
5.16768e-05
4.27085e-08
5.36026e-05
3.87401e-08
5.55994e-05
3.43876e-08
5.76698e-05
2.96797e-08
5.98166e-05
2.46476e-08
6.20426e-05
1.9307e-08
6.43507e-05
1.36563e-08
6.67441e-05
6.92264e-05
3.40618e-08
3.45055e-05
4.75326e-08
3.57914e-05
5.47283e-08
3.7138e-05
5.85167e-08
3.85339e-05
6.08356e-08
3.99784e-05
6.15106e-08
4.1475e-05
6.09089e-08
4.30265e-05
5.94954e-08
4.46347e-05
5.74746e-08
4.63019e-05
5.49829e-08
4.80304e-05
5.19733e-08
4.98224e-05
4.8485e-08
5.16803e-05
4.45788e-08
5.36065e-05
4.02898e-08
5.56037e-05
3.56534e-08
5.76744e-05
3.06947e-08
5.98215e-05
2.54358e-08
6.20478e-05
1.9905e-08
6.43563e-05
1.41014e-08
6.67499e-05
6.92325e-05
4.41989e-08
3.44817e-05
5.78326e-08
3.57778e-05
6.15968e-08
3.71343e-05
6.41264e-08
3.85313e-05
6.59399e-08
3.99765e-05
6.63396e-08
4.14746e-05
6.5547e-08
4.30273e-05
6.36712e-08
4.46365e-05
6.10791e-08
4.63045e-05
5.79394e-08
4.80335e-05
5.43583e-08
4.9826e-05
5.04225e-08
5.16842e-05
4.61465e-08
5.36108e-05
4.15497e-08
5.56082e-05
3.66588e-08
5.76793e-05
3.14876e-08
5.98267e-05
2.60418e-08
6.20533e-05
2.03439e-08
6.4362e-05
1.44502e-08
6.67558e-05
6.92388e-05
6.4577e-08
3.44484e-05
6.9594e-08
3.57728e-05
7.22695e-08
3.71316e-05
7.39006e-08
3.85297e-05
7.35537e-08
3.99769e-05
7.21146e-08
4.14761e-05
6.99658e-08
4.30294e-05
6.72496e-08
4.46393e-05
6.40479e-08
4.63077e-05
6.03875e-08
4.80372e-05
5.63694e-08
4.983e-05
5.20405e-08
5.16885e-05
4.74211e-08
5.36154e-05
4.25417e-08
5.56131e-05
3.74235e-08
5.76844e-05
3.20738e-08
5.9832e-05
2.64899e-08
6.20588e-05
2.06317e-08
6.43678e-05
1.47144e-08
6.67617e-05
6.92451e-05
8.27655e-08
8.24442e-08
8.35888e-08
8.29105e-08
8.09746e-08
7.83088e-08
7.49993e-08
7.12662e-08
6.72177e-08
6.28902e-08
5.83415e-08
5.35786e-08
4.86058e-08
4.34444e-08
3.81017e-08
3.2573e-08
2.68616e-08
2.09736e-08
1.47324e-08
)
;

boundaryField
{
    movingWall
    {
        type            calculated;
        value           nonuniform List<scalar> 
60
(
1.19317e-08
1.30726e-08
1.42389e-08
1.54197e-08
1.66081e-08
1.77895e-08
1.89402e-08
2.0025e-08
2.09961e-08
2.18004e-08
2.23848e-08
2.27009e-08
2.27094e-08
2.23773e-08
2.1682e-08
2.06281e-08
1.92525e-08
1.76163e-08
1.57972e-08
1.38818e-08
1.19575e-08
1.01009e-08
8.37285e-09
6.81458e-09
5.44942e-09
4.28467e-09
3.31485e-09
2.52345e-09
1.89463e-09
1.39829e-09
1.02795e-09
7.30662e-10
5.51136e-10
3.58333e-10
3.44415e-10
1.65987e-10
3.29411e-10
1.11623e-10
3.64991e-10
-8.51412e-11
2.07137e-10
7.74832e-10
1.33331e-09
1.89364e-09
2.4641e-09
3.02765e-09
3.57449e-09
4.08859e-09
4.59077e-09
5.08156e-09
5.57921e-09
6.06539e-09
6.53765e-09
6.97065e-09
7.36191e-09
7.6939e-09
7.973e-09
8.19235e-09
8.36352e-09
8.48867e-09
)
;
    }
    leftSide
    {
        type            calculated;
        value           nonuniform List<scalar> 
20
(
-3.4585e-05
-3.587e-05
-3.72028e-05
-3.85851e-05
-4.00187e-05
-4.15056e-05
-4.30477e-05
-4.46472e-05
-4.6306e-05
-4.80265e-05
-4.9811e-05
-5.16617e-05
-5.35812e-05
-5.5572e-05
-5.76368e-05
-5.97783e-05
-6.19993e-05
-6.43029e-05
-6.66921e-05
-6.91701e-05
)
;
    }
    rightSide
    {
        type            calculated;
        value           nonuniform List<scalar> 
20
(
2.96178e-05
3.58388e-05
3.73834e-05
3.8778e-05
4.02189e-05
4.17133e-05
4.32632e-05
4.48707e-05
4.65379e-05
4.8267e-05
5.00604e-05
5.19204e-05
5.38494e-05
5.58502e-05
5.79253e-05
6.00775e-05
6.23097e-05
6.46248e-05
6.70259e-05
6.95161e-05
)
;
    }
    bottomWall
    {
        type            calculated;
        value           uniform 0;
    }