/*--------------------------------*- C++ -*----------------------------------*\
  =========                 |
  \\      /  F ield         | OpenFOAM: The Open Source CFD Toolbox
   \\    /   O peration     | Website:  https://openfoam.org
    \\  /    A nd           | Version:  10
     \\/     M anipulation  |
\*---------------------------------------------------------------------------*/
FoamFile
{
    format      ascii;
    class       volVectorField;
    location    "0.1";
    object      U;
}
// * * * * * * * * * * * * * * * * * * * * * * * * * * * * * * * * * * * * * //

dimensions      [0 1 -1 0 0 0 0];

internalField   nonuniform List<vector> 
1200
(
(0 0.00206404 0.992307)
(0 0.00369207 0.997556)
(0 0.00317828 0.998209)
(0 0.00295345 0.998684)
(0 0.00279307 0.999078)
(0 0.00264647 0.99942)
(0 0.00249796 0.999715)
(0 0.00234917 0.99997)
(0 0.00219993 1.00019)
(0 0.00204856 1.00038)
(0 0.00189418 1.00054)
(0 0.00173722 1.00068)
(0 0.00157777 1.00079)
(0 0.00141502 1.0009)
(0 0.00124869 1.00098)
(0 0.00107886 1.00105)
(0 0.000904316 1.00111)
(0 0.000723448 1.00116)
(0 0.000574868 1.0012)
(0 0.000263385 1.00124)
(0 0.00295845 0.984965)
(0 0.00499569 0.997769)
(0 0.00387908 0.998397)
(0 0.00347547 0.99887)
(0 0.00322211 0.999267)
(0 0.00301205 0.9996)
(0 0.0028127 0.999887)
(0 0.00261369 1.00013)
(0 0.00241876 1.00035)
(0 0.00222991 1.00053)
(0 0.00204432 1.00069)
(0 0.0018628 1.00082)
(0 0.00168286 1.00094)
(0 0.00150219 1.00104)
(0 0.00132057 1.00112)
(0 0.00113749 1.00119)
(0 0.000951214 1.00125)
(0 0.000759116 1.0013)
(0 0.000604403 1.00133)
(0 0.000278263 1.00137)
(0 0.00366103 0.977959)
(0 0.00603298 0.998225)
(0 0.00454368 0.998747)
(0 0.00403819 0.999147)
(0 0.0036741 0.99952)
(0 0.00337061 0.999853)
(0 0.00309992 1.00013)
(0 0.00285258 1.00036)
(0 0.00262568 1.00056)
(0 0.0024038 1.00073)
(0 0.00219085 1.00087)
(0 0.00198666 1.001)
(0 0.00178515 1.00111)
(0 0.00158605 1.0012)
(0 0.00138929 1.00128)
(0 0.00119316 1.00135)
(0 0.000995534 1.0014)
(0 0.000792878 1.00144)
(0 0.000632258 1.00148)
(0 0.000292204 1.00151)
(0 0.00398721 0.970868)
(0 0.00651954 0.998963)
(0 0.00490997 0.999436)
(0 0.00446841 0.999665)
(0 0.00409968 0.999921)
(0 0.00374488 1.00018)
(0 0.00340478 1.00041)
(0 0.00310307 1.00063)
(0 0.00282061 1.00081)
(0 0.00256037 1.00096)
(0 0.00232622 1.00109)
(0 0.00210056 1.00121)
(0 0.00187892 1.0013)
(0 0.00166371 1.00139)
(0 0.00145302 1.00146)
(0 0.0012446 1.00151)
(0 0.00103641 1.00156)
(0 0.000824011 1.0016)
(0 0.000657961 1.00163)
(0 0.0003051 1.00166)
(0 0.00400261 0.963447)
(0 0.00654829 0.999691)
(0 0.00499721 1.00024)
(0 0.00467574 1.00035)
(0 0.00432708 1.00051)
(0 0.00397415 1.00067)
(0 0.00364223 1.00083)
(0 0.00331406 1.00098)
(0 0.00299339 1.0011)
(0 0.00271406 1.00122)
(0 0.00245588 1.00134)
(0 0.00220333 1.00144)
(0 0.00196277 1.00152)
(0 0.00173306 1.00159)
(0 0.00150947 1.00165)
(0 0.00129007 1.0017)
(0 0.0010726 1.00174)
(0 0.000851556 1.00177)
(0 0.000680995 1.0018)
(0 0.000316861 1.00182)
(0 0.00392237 0.955543)
(0 0.00634249 1.00019)
(0 0.0049477 1.00093)
(0 0.00483563 1.00096)
(0 0.00452473 1.00106)
(0 0.00415217 1.00118)
(0 0.00378555 1.00129)
(0 0.00342203 1.00137)
(0 0.00310795 1.00146)
(0 0.00283258 1.00155)
(0 0.00255591 1.00163)
(0 0.00228679 1.0017)
(0 0.0020341 1.00176)
(0 0.00179177 1.00181)
(0 0.00155674 1.00186)
(0 0.00132804 1.0019)
(0 0.00110278 1.00193)
(0 0.000874452 1.00196)
(0 0.000700681 1.00198)
(0 0.000327266 1.002)
(0 0.00392189 0.946914)
(0 0.00618175 1.00055)
(0 0.00476618 1.00176)
(0 0.00483809 1.00174)
(0 0.00462913 1.0017)
(0 0.00428813 1.00171)
(0 0.00389406 1.00173)
(0 0.00351702 1.00177)
(0 0.00320937 1.00184)
(0 0.00291323 1.0019)
(0 0.0026177 1.00194)
(0 0.00234324 1.00199)
(0 0.00208426 1.00203)
(0 0.00183364 1.00206)
(0 0.00159125 1.00209)
(0 0.0013561 1.00211)
(0 0.00112522 1.00213)
(0 0.000891489 1.00215)
(0 0.000716188 1.00216)
(0 0.000335972 1.00218)
(0 0.00397519 0.937402)
(0 0.00623528 1.00053)
(0 0.00467755 1.00244)
(0 0.00472155 1.0025)
(0 0.00448959 1.00244)
(0 0.004189 1.00237)
(0 0.00385253 1.00228)
(0 0.00355428 1.00225)
(0 0.00327129 1.00226)
(0 0.00295831 1.00227)
(0 0.00265662 1.00228)
(0 0.00237866 1.00229)
(0 0.00211257 1.00231)
(0 0.00185648 1.00232)
(0 0.00161025 1.00233)
(0 0.00137171 1.00234)
(0 0.00113795 1.00235)
(0 0.000901275 1.00236)
(0 0.000726466 1.00236)
(0 0.000342494 1.00237)
(0 0.00394556 0.927614)
(0 0.0062978 1.00008)
(0 0.00480262 1.00263)
(0 0.00478834 1.00278)
(0 0.0044354 1.00284)
(0 0.00405937 1.00283)
(0 0.00373271 1.00278)
(0 0.0034914 1.00276)
(0 0.00322407 1.00272)
(0 0.00292931 1.00267)
(0 0.0026503 1.00264)
(0 0.00237976 1.00262)
(0 0.00211429 1.00261)
(0 0.00185849 1.0026)
(0 0.00161208 1.00259)
(0 0.00137324 1.00258)
(0 0.00113954 1.00257)
(0 0.000902531 1.00257)
(0 0.000730327 1.00257)
(0 0.000346236 1.00257)
(0 0.00394676 0.918191)
(0 0.00628998 0.999717)
(0 0.00494798 1.00285)
(0 0.00496729 1.00297)
(0 0.00458049 1.00307)
(0 0.00411387 1.00309)
(0 0.00374929 1.00312)
(0 0.00346262 1.00313)
(0 0.00315372 1.00309)
(0 0.00286389 1.00305)
(0 0.00259865 1.003)
(0 0.00233736 1.00296)
(0 0.00208152 1.00292)
(0 0.00183369 1.00288)
(0 0.00159284 1.00285)
(0 0.00135828 1.00283)
(0 0.00112834 1.00281)
(0 0.000894008 1.00279)
(0 0.00072665 1.00278)
(0 0.000346621 1.00278)
(0 0.00412758 0.908575)
(0 0.00641175 0.99967)
(0 0.00501111 1.00358)
(0 0.00501882 1.00366)
(0 0.00461959 1.00364)
(0 0.00413707 1.00357)
(0 0.0037904 1.00354)
(0 0.00345778 1.0035)
(0 0.0031126 1.00345)
(0 0.00281122 1.0034)
(0 0.0025356 1.00334)
(0 0.00227267 1.00328)
(0 0.00202324 1.00322)
(0 0.00178389 1.00317)
(0 0.0015517 1.00312)
(0 0.00132537 1.00308)
(0 0.00110297 1.00304)
(0 0.000874621 1.00302)
(0 0.000714523 1.00299)
(0 0.000343176 1.00298)
(0 0.00426684 0.89795)
(0 0.00654364 0.999689)
(0 0.00492048 1.00458)
(0 0.00489883 1.00466)
(0 0.004411 1.00448)
(0 0.00394887 1.0043)
(0 0.00365061 1.00416)
(0 0.00332287 1.00401)
(0 0.00300076 1.00389)
(0 0.00271467 1.00378)
(0 0.0024428 1.00368)
(0 0.00218577 1.00359)
(0 0.0019441 1.00351)
(0 0.00171362 1.00344)
(0 0.00149148 1.00338)
(0 0.00127565 1.00332)
(0 0.00106362 1.00328)
(0 0.000844208 1.00324)
(0 0.000693541 1.00321)
(0 0.00033559 1.00319)
(0 0.00398689 0.886818)
(0 0.00620732 0.999701)
(0 0.00446815 1.00556)
(0 0.00455441 1.00555)
(0 0.00399869 1.00524)
(0 0.00360267 1.00499)
(0 0.00333881 1.00476)
(0 0.00303855 1.00454)
(0 0.00276823 1.00435)
(0 0.0025213 1.00419)
(0 0.00228072 1.00404)
(0 0.00205067 1.00392)
(0 0.00183019 1.00381)
(0 0.00161726 1.00372)
(0 0.00141072 1.00363)
(0 0.0012092 1.00357)
(0 0.00101072 1.00351)
(0 0.000803163 1.00346)
(0 0.000663781 1.00342)
(0 0.000323746 1.0034)
(0 0.00322011 0.876686)
(0 0.00518976 0.999807)
(0 0.00359187 1.00635)
(0 0.00389875 1.00622)
(0 0.00339134 1.0058)
(0 0.00313674 1.0055)
(0 0.00292214 1.00521)
(0 0.00267475 1.00496)
(0 0.00246089 1.00474)
(0 0.00225761 1.00454)
(0 0.00205848 1.00437)
(0 0.00186563 1.00422)
(0 0.0016766 1.00409)
(0 0.00149041 1.00398)
(0 0.00130664 1.00388)
(0 0.00112481 1.0038)
(0 0.000944007 1.00373)
(0 0.000751706 1.00367)
(0 0.000625454 1.00363)
(0 0.00030765 1.0036)
(0 0.00223745 0.868763)
(0 0.00377346 0.999972)
(0 0.00253168 1.00681)
(0 0.00301669 1.00661)
(0 0.00264567 1.00617)
(0 0.00256047 1.00584)
(0 0.00242408 1.00552)
(0 0.0022607 1.00526)
(0 0.00211243 1.00502)
(0 0.00195935 1.00482)
(0 0.00180511 1.00463)
(0 0.00165116 1.00447)
(0 0.00149623 1.00433)
(0 0.0013402 1.00421)
(0 0.00118292 1.0041)
(0 0.00102442 1.00401)
(0 0.00086463 1.00394)
(0 0.00069067 1.00387)
(0 0.000579144 1.00383)
(0 0.000287484 1.00379)
(0 0.00135177 0.863363)
(0 0.0024041 1.00007)
(0 0.00159351 1.00686)
(0 0.00212578 1.00667)
(0 0.00191025 1.00631)
(0 0.00195339 1.006)
(0 0.00189687 1.0057)
(0 0.00182159 1.00545)
(0 0.00174029 1.00522)
(0 0.00164271 1.00501)
(0 0.00153622 1.00483)
(0 0.00142248 1.00467)
(0 0.00130243 1.00453)
(0 0.00117717 1.00441)
(0 0.00104726 1.0043)
(0 0.000913302 1.0042)
(0 0.00077602 1.00412)
(0 0.00062231 1.00406)
(0 0.00052631 1.00401)
(0 0.000263791 1.00397)
(0 0.000719472 0.860115)
(0 0.00136229 1.00006)
(0 0.000926588 1.00662)
(0 0.00139378 1.0065)
(0 0.00130756 1.00624)
(0 0.00141492 1.00599)
(0 0.00141736 1.00575)
(0 0.0014075 1.00553)
(0 0.00137896 1.00533)
(0 0.00133003 1.00514)
(0 0.0012669 1.00498)
(0 0.00119118 1.00482)
(0 0.00110484 1.00469)
(0 0.00100957 1.00457)
(0 0.00090657 1.00446)
(0 0.000797 1.00437)
(0 0.000682363 1.00429)
(0 0.000549662 1.00423)
(0 0.000469115 1.00418)
(0 0.000237465 1.00413)
(0 0.000342026 0.858374)
(0 0.00070125 0.999971)
(0 0.000520805 1.00626)
(0 0.000872382 1.00621)
(0 0.000871098 1.00605)
(0 0.000992607 1.00587)
(0 0.00102939 1.00569)
(0 0.00105686 1.00552)
(0 0.00106187 1.00536)
(0 0.00104724 1.0052)
(0 0.00101673 1.00506)
(0 0.000971724 1.00493)
(0 0.000914132 1.00481)
(0 0.000845544 1.0047)
(0 0.000767277 1.0046)
(0 0.000680645 1.00451)
(0 0.000587686 1.00444)
(0 0.000475794 1.00437)
(0 0.000409943 1.00432)
(0 0.000209589 1.00428)
(0 0.000148073 0.857523)
(0 0.0003394 0.999847)
(0 0.000298728 1.00591)
(0 0.000536427 1.00594)
(0 0.000577352 1.00584)
(0 0.000685586 1.00572)
(0 0.000736518 1.00559)
(0 0.000779517 1.00547)
(0 0.00080216 1.00534)
(0 0.000808071 1.00522)
(0 0.000798938 1.0051)
(0 0.000775812 1.00499)
(0 0.000740099 1.00489)
(0 0.000693018 1.00479)
(0 0.000635669 1.0047)
(0 0.000569199 1.00463)
(0 0.000495853 1.00456)
(0 0.000403622 1.0045)
(0 0.000351144 1.00445)
(0 0.0001813 1.00441)
(0 6.05429e-05 0.857126)
(0 0.000163408 0.999716)
(0 0.000183111 1.00562)
(0 0.000333843 1.0057)
(0 0.000387163 1.00564)
(0 0.000472658 1.00556)
(0 0.000524173 1.00548)
(0 0.000568998 1.00539)
(0 0.000598152 1.0053)
(0 0.00061419 1.00521)
(0 0.000617452 1.00511)
(0 0.000608518 1.00503)
(0 0.000588193 1.00494)
(0 0.000557258 1.00486)
(0 0.000516492 1.00478)
(0 0.000466739 1.00472)
(0 0.000410213 1.00466)
(0 0.000335733 1.00461)
(0 0.00029488 1.00456)
(0 0.000153694 1.00453)
(0 2.509e-05 0.856936)
(0 8.42333e-05 0.999594)
(0 0.00012144 1.00541)
(0 0.000215006 1.00552)
(0 0.000265119 1.00548)
(0 0.000328585 1.00543)
(0 0.000373716 1.00538)
(0 0.000413516 1.00531)
(0 0.000442414 1.00525)
(0 0.000461641 1.00518)
(0 0.000470861 1.00511)
(0 0.000470207 1.00504)
(0 0.000459963 1.00497)
(0 0.000440502 1.00491)
(0 0.000412273 1.00484)
(0 0.000375794 1.00479)
(0 0.000333099 1.00474)
(0 0.000274054 1.00469)
(0 0.000242902 1.00466)
(0 0.000127723 1.00462)
(0 1.17202e-05 0.856835)
(0 4.90668e-05 0.99949)
(0 8.53277e-05 1.00525)
(0 0.000144245 1.00538)
(0 0.000185432 1.00536)
(0 0.000231286 1.00533)
(0 0.00026782 1.00529)
(0 0.000300348 1.00525)
(0 0.000325712 1.0052)
(0 0.000344216 1.00515)
(0 0.000355299 1.0051)
(0 0.000358791 1.00504)
(0 0.000354635 1.00499)
(0 0.000342903 1.00494)
(0 0.000323765 1.00489)
(0 0.000297457 1.00484)
(0 0.000265752 1.0048)
(0 0.000219719 1.00476)
(0 0.00019639 1.00473)
(0 0.000104097 1.0047)
(0 6.66918e-06 0.856772)
(0 3.2157e-05 0.999405)
(0 6.16992e-05 1.00514)
(0 0.000100085 1.00528)
(0 0.000131744 1.00527)
(0 0.000164614 1.00524)
(0 0.000192857 1.00522)
(0 0.000218242 1.00519)
(0 0.000239034 1.00515)
(0 0.000255068 1.00512)
(0 0.000265777 1.00508)
(0 0.000270846 1.00504)
(0 0.000270043 1.005)
(0 0.000263259 1.00496)
(0 0.000250485 1.00492)
(0 0.000231743 1.00488)
(0 0.000208521 1.00485)
(0 0.000173172 1.00482)
(0 0.000155963 1.00479)
(0 8.32576e-05 1.00477)
(0 4.4955e-06 0.856727)
(0 2.26675e-05 0.999339)
(0 4.50173e-05 1.00507)
(0 7.09475e-05 1.0052)
(0 9.44535e-05 1.00519)
(0 0.000118017 1.00518)
(0 0.000139252 1.00516)
(0 0.00015852 1.00514)
(0 0.000174855 1.00512)
(0 0.00018793 1.00509)
(0 0.000197254 1.00506)
(0 0.000202477 1.00503)
(0 0.000203311 1.005)
(0 0.00019956 1.00497)
(0 0.000191117 1.00494)
(0 0.000177881 1.00491)
(0 0.000161057 1.00489)
(0 0.000134283 1.00486)
(0 0.000121743 1.00484)
(0 6.53864e-05 1.00482)
(0 3.26705e-06 0.856694)
(0 1.64171e-05 0.999289)
(0 3.27963e-05 1.00501)
(0 5.07968e-05 1.00515)
(0 6.79421e-05 1.00514)
(0 8.48644e-05 1.00513)
(0 0.000100555 1.00512)
(0 0.000114919 1.00511)
(0 0.000127393 1.00509)
(0 0.000137641 1.00507)
(0 0.000145273 1.00505)
(0 0.000149965 1.00503)
(0 0.000151439 1.005)
(0 0.000149476 1.00498)
(0 0.000143928 1.00496)
(0 0.000134636 1.00494)
(0 0.000122552 1.00492)
(0 0.000102525 1.0049)
(0 9.34731e-05 1.00488)
(0 5.04568e-05 1.00487)
(0 2.45772e-06 0.856668)
(0 1.20048e-05 0.99925)
(0 2.37999e-05 1.00496)
(0 3.64823e-05 1.0051)
(0 4.88534e-05 1.0051)
(0 6.10003e-05 1.00509)
(0 7.24522e-05 1.00509)
(0 8.30188e-05 1.00508)
(0 9.23467e-05 1.00506)
(0 0.000100157 1.00505)
(0 0.000106149 1.00504)
(0 0.000110054 1.00502)
(0 0.000111628 1.005)
(0 0.000110674 1.00499)
(0 0.000107037 1.00497)
(0 0.000100541 1.00495)
(0 9.19232e-05 1.00494)
(0 7.71221e-05 1.00492)
(0 7.06373e-05 1.00491)
(0 3.82849e-05 1.0049)
(0 1.77103e-06 0.85665)
(0 8.62199e-06 0.999223)
(0 1.71018e-05 1.00493)
(0 2.60961e-05 1.00507)
(0 3.4974e-05 1.00507)
(0 4.36788e-05 1.00507)
(0 5.19642e-05 1.00506)
(0 5.96569e-05 1.00506)
(0 6.65254e-05 1.00505)
(0 7.23555e-05 1.00504)
(0 7.6924e-05 1.00503)
(0 8.00198e-05 1.00502)
(0 8.14448e-05 1.005)
(0 8.10288e-05 1.00499)
(0 7.86423e-05 1.00498)
(0 7.4114e-05 1.00497)
(0 6.80038e-05 1.00496)
(0 5.719e-05 1.00494)
(0 5.25752e-05 1.00494)
(0 2.85848e-05 1.00493)
(0 1.39947e-06 0.856634)
(0 6.3668e-06 0.999199)
(0 1.23138e-05 1.00491)
(0 1.86703e-05 1.00505)
(0 2.49675e-05 1.00505)
(0 3.11551e-05 1.00505)
(0 3.70808e-05 1.00504)
(0 4.26122e-05 1.00504)
(0 4.75918e-05 1.00503)
(0 5.1862e-05 1.00502)
(0 5.52592e-05 1.00502)
(0 5.76245e-05 1.00501)
(0 5.88061e-05 1.005)
(0 5.8664e-05 1.00499)
(0 5.70903e-05 1.00498)
(0 5.39441e-05 1.00497)
(0 4.96356e-05 1.00496)
(0 4.18228e-05 1.00496)
(0 3.8549e-05 1.00495)
(0 2.10012e-05 1.00494)
(0 8.20096e-07 0.856627)
(0 4.22945e-06 0.99919)
(0 8.5845e-06 1.0049)
(0 1.30958e-05 1.00504)
(0 1.7595e-05 1.00504)
(0 2.20053e-05 1.00504)
(0 2.62392e-05 1.00503)
(0 3.02008e-05 1.00503)
(0 3.37835e-05 1.00503)
(0 3.68757e-05 1.00502)
(0 3.93603e-05 1.00502)
(0 4.11208e-05 1.00501)
(0 4.20464e-05 1.005)
(0 4.20332e-05 1.005)
(0 4.09922e-05 1.00499)
(0 3.88113e-05 1.00499)
(0 3.57917e-05 1.00498)
(0 3.02066e-05 1.00497)
(0 2.78971e-05 1.00497)
(0 1.52188e-05 1.00496)
(0 9.46825e-07 0.856611)
(0 3.56099e-06 0.999166)
(0 6.33831e-06 1.00487)
(0 9.449e-06 1.00501)
(0 1.25227e-05 1.00502)
(0 1.55701e-05 1.00501)
(0 1.85122e-05 1.00501)
(0 2.12828e-05 1.00501)
(0 2.3805e-05 1.00501)
(0 2.59978e-05 1.005)
(0 2.77765e-05 1.005)
(0 2.90545e-05 1.005)
(0 2.97476e-05 1.00499)
(0 2.97804e-05 1.00499)
(0 2.90878e-05 1.00498)
(0 2.75778e-05 1.00498)
(0 2.54662e-05 1.00497)
(0 2.15147e-05 1.00497)
(0 1.98752e-05 1.00497)
(0 1.08413e-05 1.00496)
(0 2.54723e-08 0.856621)
(0 1.51826e-06 0.999182)
(0 3.96974e-06 1.00489)
(0 6.24259e-06 1.00503)
(0 8.54523e-06 1.00503)
(0 1.07697e-05 1.00503)
(0 1.29007e-05 1.00503)
(0 1.48928e-05 1.00503)
(0 1.66987e-05 1.00503)
(0 1.8266e-05 1.00502)
(0 1.95392e-05 1.00502)
(0 2.04607e-05 1.00502)
(0 2.09709e-05 1.00501)
(0 2.10129e-05 1.00501)
(0 2.0544e-05 1.00501)
(0 1.94973e-05 1.00501)
(0 1.80239e-05 1.005)
(0 1.52447e-05 1.005)
(0 1.41009e-05 1.005)
(0 7.69432e-06 1.00499)
(0 1.08529e-06 0.856587)
(0 2.64416e-06 0.99913)
(0 3.5585e-06 1.00483)
(0 4.98325e-06 1.00498)
(0 6.33453e-06 1.00498)
(0 7.73478e-06 1.00498)
(0 9.1122e-06 1.00498)
(0 1.04304e-05 1.00498)
(0 1.16464e-05 1.00497)
(0 1.27158e-05 1.00497)
(0 1.35932e-05 1.00497)
(0 1.4234e-05 1.00497)
(0 1.45952e-05 1.00497)
(0 1.46324e-05 1.00497)
(0 1.43086e-05 1.00496)
(0 1.35802e-05 1.00496)
(0 1.25431e-05 1.00496)
(0 1.0605e-05 1.00496)
(0 9.74485e-06 1.00496)
(0 5.28052e-06 1.00495)
(0 -8.43543e-07 0.856639)
(0 -3.48985e-07 0.99921)
(0 1.53236e-06 1.00491)
(0 2.7819e-06 1.00506)
(0 4.11751e-06 1.00506)
(0 5.33608e-06 1.00506)
(0 6.46789e-06 1.00506)
(0 7.50098e-06 1.00506)
(0 8.42014e-06 1.00506)
(0 9.2066e-06 1.00506)
(0 9.83745e-06 1.00505)
(0 1.02869e-05 1.00505)
(0 1.05299e-05 1.00505)
(0 1.05429e-05 1.00505)
(0 1.0301e-05 1.00505)
(0 9.77123e-06 1.00505)
(0 9.03394e-06 1.00505)
(0 7.65367e-06 1.00505)
(0 7.07583e-06 1.00504)
(0 3.84876e-06 1.00504)
(0 1.50699e-06 0.856535)
(0 2.61095e-06 0.999057)
(0 2.48366e-06 1.00476)
(0 2.98234e-06 1.0049)
(0 3.46523e-06 1.00491)
(0 4.05526e-06 1.00491)
(0 4.68357e-06 1.00491)
(0 5.30975e-06 1.00491)
(0 5.90135e-06 1.0049)
(0 6.42776e-06 1.0049)
(0 6.8607e-06 1.0049)
(0 7.17343e-06 1.0049)
(0 7.34016e-06 1.0049)
(0 7.33991e-06 1.0049)
(0 7.15629e-06 1.0049)
(0 6.76225e-06 1.0049)
(0 6.19432e-06 1.0049)
(0 5.21541e-06 1.0049)
(0 4.62944e-06 1.0049)
(0 2.41973e-06 1.0049)
(0 -8.31477e-07 0.856704)
(0 -2.94542e-07 0.999299)
(0 1.18808e-06 1.005)
(0 2.13196e-06 1.00515)
(0 3.02709e-06 1.00515)
(0 3.79942e-06 1.00515)
(0 4.45892e-06 1.00515)
(0 5.02218e-06 1.00515)
(0 5.49338e-06 1.00515)
(0 5.87003e-06 1.00515)
(0 6.14656e-06 1.00515)
(0 6.31542e-06 1.00515)
(0 6.367e-06 1.00515)
(0 6.28993e-06 1.00515)
(0 6.07867e-06 1.00515)
(0 5.72128e-06 1.00515)
(0 5.26225e-06 1.00515)
(0 4.47205e-06 1.00514)
(0 4.15692e-06 1.00514)
(0 2.25206e-06 1.00514)
(0 3.95183e-07 0.856411)
(0 7.50661e-07 0.998907)
(0 1.2825e-06 1.00461)
(0 1.57669e-06 1.00475)
(0 2.12621e-06 1.00476)
(0 2.66501e-06 1.00476)
(0 3.17766e-06 1.00476)
(0 3.64438e-06 1.00476)
(0 4.04151e-06 1.00476)
(0 4.3551e-06 1.00476)
(0 4.5754e-06 1.00476)
(0 4.69542e-06 1.00476)
(0 4.71036e-06 1.00476)
(0 4.61432e-06 1.00476)
(0 4.40075e-06 1.00476)
(0 4.06428e-06 1.00476)
(0 3.60724e-06 1.00476)
(0 2.99047e-06 1.00476)
(0 2.35409e-06 1.00476)
(0 1.0596e-06 1.00476)
(0 2.8338e-06 0.85683)
(0 5.29886e-06 0.99944)
(0 5.04862e-06 1.00515)
(0 5.46997e-06 1.00529)
(0 5.78968e-06 1.00529)
(0 6.01695e-06 1.00529)
(0 6.22341e-06 1.00529)
(0 6.37345e-06 1.00529)
(0 6.45876e-06 1.0053)
(0 6.47392e-06 1.0053)
(0 6.41417e-06 1.0053)
(0 6.27646e-06 1.0053)
(0 6.06053e-06 1.0053)
(0 5.76966e-06 1.0053)
(0 5.40536e-06 1.0053)
(0 4.97132e-06 1.0053)
(0 4.50666e-06 1.0053)
(0 3.86194e-06 1.0053)
(0 3.70493e-06 1.0053)
(0 2.0208e-06 1.0053)
(0 -1.85742e-06 0.856153)
(0 -1.11326e-06 0.998672)
(0 1.87685e-06 1.00438)
(0 3.51207e-06 1.00452)
(0 4.61398e-06 1.00452)
(0 5.45185e-06 1.00452)
(0 5.95051e-06 1.00452)
(0 6.18523e-06 1.00452)
(0 6.22141e-06 1.00452)
(0 6.10399e-06 1.00453)
(0 5.86731e-06 1.00453)
(0 5.53751e-06 1.00453)
(0 5.13365e-06 1.00453)
(0 4.67022e-06 1.00453)
(0 4.16032e-06 1.00453)
(0 3.59991e-06 1.00453)
(0 2.99568e-06 1.00453)
(0 2.4065e-06 1.00453)
(0 1.73317e-06 1.00453)
(0 6.74756e-07 1.00453)
(0 5.50733e-06 0.856838)
(0 1.05322e-05 0.999407)
(0 1.15552e-05 1.00511)
(0 1.05399e-05 1.00526)
(0 1.05451e-05 1.00526)
(0 1.03935e-05 1.00526)
(0 1.01383e-05 1.00527)
(0 9.80697e-06 1.00527)
(0 9.39281e-06 1.00527)
(0 8.89849e-06 1.00527)
(0 8.33318e-06 1.00527)
(0 7.70944e-06 1.00527)
(0 7.04184e-06 1.00527)
(0 6.34544e-06 1.00527)
(0 5.63695e-06 1.00527)
(0 4.93965e-06 1.00527)
(0 4.25723e-06 1.00527)
(0 3.49035e-06 1.00527)
(0 3.54908e-06 1.00527)
(0 2.0509e-06 1.00527)
(0 2.01271e-05 0.855654)
(0 3.30924e-05 0.998285)
(0 2.72155e-05 1.004)
(0 2.44899e-05 1.00415)
(0 2.18163e-05 1.00415)
(0 1.91937e-05 1.00415)
(0 1.67714e-05 1.00416)
(0 1.45414e-05 1.00416)
(0 1.24933e-05 1.00416)
(0 1.06189e-05 1.00416)
(0 8.90835e-06 1.00416)
(0 7.3508e-06 1.00416)
(0 5.93477e-06 1.00416)
(0 4.64825e-06 1.00416)
(0 3.47892e-06 1.00416)
(0 2.41571e-06 1.00416)
(0 1.45082e-06 1.00416)
(0 6.04846e-07 1.00416)
(0 -4.21998e-07 1.00415)
(0 -5.23162e-07 1.00415)
(0 -0.000380661 0.9982)
(0 -0.000444982 0.999917)
(0 -0.000150179 1.00005)
(0 -8.79226e-05 1.00003)
(0 -2.62281e-05 1.00002)
(0 1.89929e-07 1.00001)
(0 1.05395e-05 1.00001)
(0 1.63497e-05 1)
(0 1.89696e-05 1)
(0 2.07237e-05 1)
(0 2.18639e-05 1)
(0 2.24671e-05 1)
(0 2.25158e-05 1)
(0 2.19694e-05 1)
(0 2.08129e-05 1)
(0 1.90584e-05 1)
(0 1.67266e-05 1)
(0 1.38331e-05 1)
(0 1.0253e-05 1)
(0 4.1294e-06 1)
(0 0.000254592 1.00282)
(0 0.000278634 0.999834)
(0 4.84389e-06 0.999691)
(0 -4.2776e-05 0.999835)
(0 -3.07606e-05 0.999905)
(0 -1.38645e-05 0.999951)
(0 1.75222e-05 0.999975)
(0 3.70736e-05 0.999986)
(0 5.15128e-05 0.999992)
(0 6.08301e-05 0.999995)
(0 6.6187e-05 0.999998)
(0 6.87402e-05 0.999999)
(0 6.89827e-05 1)
(0 6.71839e-05 1)
(0 6.34778e-05 1)
(0 5.7955e-05 1.00001)
(0 5.07497e-05 1.00001)
(0 4.19634e-05 1.00001)
(0 3.1501e-05 1.00001)
(0 1.29374e-05 1.00001)
(0 0.000166107 0.996241)
(0 0.000239478 0.999738)
(0 0.000264866 0.999957)
(0 0.000260434 0.99991)
(0 0.000167626 0.999908)
(0 0.000138429 0.999928)
(0 0.000112789 0.999945)
(0 0.000105128 0.999963)
(0 0.000107101 0.999976)
(0 0.000111363 0.999985)
(0 0.000115459 0.999993)
(0 0.000117526 0.999999)
(0 0.000116863 1)
(0 0.00011323 1.00001)
(0 0.000106608 1.00001)
(0 9.70825e-05 1.00002)
(0 8.48335e-05 1.00002)
(0 7.01973e-05 1.00002)
(0 5.32816e-05 1.00002)
(0 2.21854e-05 1.00003)
(0 -0.000401561 1.00431)
(0 -0.000433675 1.00017)
(0 -0.000199418 0.999927)
(0 -0.000138485 0.999949)
(0 2.20802e-05 0.999964)
(0 8.50438e-05 0.999955)
(0 0.000124488 0.999956)
(0 0.000147234 0.99996)
(0 0.000158257 0.999968)
(0 0.000165401 0.999978)
(0 0.000169442 0.999989)
(0 0.000170453 0.999999)
(0 0.000168078 1.00001)
(0 0.000161916 1.00002)
(0 0.00015181 1.00002)
(0 0.000137852 1.00003)
(0 0.000120252 1.00004)
(0 9.95776e-05 1.00004)
(0 7.62996e-05 1.00005)
(0 3.21481e-05 1.00005)
(0 0.000722035 0.9952)
(0 0.000869595 0.999406)
(0 0.00040247 0.99967)
(0 0.000330213 0.999776)
(0 0.000202785 0.999825)
(0 0.000167694 0.99988)
(0 0.000176882 0.999915)
(0 0.000189878 0.999937)
(0 0.000206591 0.999955)
(0 0.000218854 0.999971)
(0 0.00022563 0.999986)
(0 0.000227129 1)
(0 0.000223376 1.00002)
(0 0.000214431 1.00003)
(0 0.00020031 1.00004)
(0 0.000181297 1.00005)
(0 0.000157871 1.00006)
(0 0.000130786 1.00007)
(0 0.000100984 1.00008)
(0 4.29966e-05 1.00008)
(0 -0.000456842 1.00454)
(0 -0.000491479 1.00041)
(0 -1.20083e-05 1.00014)
(0 0.000126458 0.99997)
(0 0.000216993 0.999916)
(0 0.000262647 0.999896)
(0 0.000262159 0.999896)
(0 0.000269045 0.999915)
(0 0.000276827 0.999937)
(0 0.000283801 0.99996)
(0 0.000288426 0.999982)
(0 0.000288183 1)
(0 0.000282155 1.00002)
(0 0.000269962 1.00004)
(0 0.000251441 1.00006)
(0 0.000226898 1.00008)
(0 0.000197205 1.00009)
(0 0.000163378 1.0001)
(0 0.000126889 1.00011)
(0 5.44816e-05 1.00012)
(0 0.000198053 0.995473)
(0 0.000306433 0.99934)
(0 7.00607e-05 0.999635)
(0 3.1662e-05 0.999783)
(0 0.000136916 0.999854)
(0 0.000192664 0.99987)
(0 0.000261998 0.99989)
(0 0.000308957 0.999906)
(0 0.000334966 0.999928)
(0 0.000350252 0.999954)
(0 0.000356186 0.999982)
(0 0.000354345 1.00001)
(0 0.000345219 1.00004)
(0 0.000328862 1.00006)
(0 0.000305241 1.00009)
(0 0.000274561 1.00011)
(0 0.000237989 1.00012)
(0 0.000196962 1.00014)
(0 0.000153668 1.00015)
(0 6.64464e-05 1.00016)
(0 0.000209919 1.00351)
(0 0.000324936 0.999831)
(0 0.000401087 0.999608)
(0 0.000457245 0.999645)
(0 0.000373379 0.999671)
(0 0.000353681 0.999748)
(0 0.000363314 0.999809)
(0 0.000378844 0.999859)
(0 0.000401927 0.999904)
(0 0.000418419 0.999944)
(0 0.00042536 0.999982)
(0 0.000422753 1.00002)
(0 0.000410782 1.00005)
(0 0.000390074 1.00008)
(0 0.000361008 1.00011)
(0 0.000323824 1.00014)
(0 0.000279875 1.00016)
(0 0.000231225 1.00018)
(0 0.000180909 1.0002)
(0 7.86041e-05 1.00021)
(0 -7.16559e-05 0.996159)
(0 -3.97985e-05 0.999753)
(0 7.32294e-05 0.999928)
(0 0.000170771 0.99982)
(0 0.000317953 0.999786)
(0 0.000419444 0.999777)
(0 0.000454373 0.99979)
(0 0.000481299 0.999833)
(0 0.000497463 0.999882)
(0 0.00050551 0.999933)
(0 0.000506768 0.999983)
(0 0.00049914 1.00003)
(0 0.000482055 1.00007)
(0 0.000455621 1.00011)
(0 0.000420143 1.00015)
(0 0.000375763 1.00018)
(0 0.00032375 1.00021)
(0 0.000266789 1.00023)
(0 0.00020921 1.00025)
(0 9.13389e-05 1.00026)
(0 9.32511e-05 1.00283)
(0 0.000257329 0.999404)
(0 0.000273995 0.999361)
(0 0.000284448 0.999518)
(0 0.000354819 0.999645)
(0 0.000406097 0.999706)
(0 0.000483415 0.999768)
(0 0.000544004 0.999821)
(0 0.00057721 0.999875)
(0 0.000593228 0.999932)
(0 0.000593884 0.99999)
(0 0.000581967 1.00005)
(0 0.00055906 1.0001)
(0 0.000525852 1.00014)
(0 0.000483008 1.00019)
(0 0.000430704 1.00022)
(0 0.000369988 1.00026)
(0 0.000304105 1.00028)
(0 0.000238836 1.0003)
(0 0.00010468 1.00032)
(0 0.000236922 0.995963)
(0 0.000397279 0.999312)
(0 0.000448267 0.999386)
(0 0.000570872 0.999428)
(0 0.000589729 0.999464)
(0 0.000609571 0.999567)
(0 0.000638212 0.999674)
(0 0.00065839 0.999766)
(0 0.00068025 0.999852)
(0 0.000691504 0.99993)
(0 0.000688408 1)
(0 0.000671888 1.00007)
(0 0.000642578 1.00013)
(0 0.00060176 1.00018)
(0 0.000550589 1.00023)
(0 0.00048949 1.00027)
(0 0.000419289 1.00031)
(0 0.000343617 1.00034)
(0 0.00027029 1.00036)
(0 0.000119018 1.00039)
(0 7.94103e-05 1.0028)
(0 0.000189928 0.99955)
(0 0.000302921 0.999533)
(0 0.000420835 0.999524)
(0 0.000566161 0.999551)
(0 0.000698995 0.999601)
(0 0.000760228 0.999658)
(0 0.000795699 0.999745)
(0 0.000810884 0.999839)
(0 0.000809005 0.999929)
(0 0.000795716 1.00001)
(0 0.000769996 1.00009)
(0 0.000731919 1.00016)
(0 0.000682219 1.00023)
(0 0.000621806 1.00028)
(0 0.000551211 1.00033)
(0 0.000470967 1.00037)
(0 0.000384904 1.0004)
(0 0.000303091 1.00043)
(0 0.000134013 1.00045)
(0 0.000210329 0.995497)
(0 0.000488848 0.998841)
(0 0.000554261 0.999036)
(0 0.000620632 0.999191)
(0 0.000715639 0.999383)
(0 0.000777913 0.999512)
(0 0.000848647 0.999636)
(0 0.000906032 0.999745)
(0 0.000928614 0.999845)
(0 0.000929063 0.999945)
(0 0.000910251 1.00004)
(0 0.000875291 1.00013)
(0 0.000827147 1.0002)
(0 0.000767088 1.00027)
(0 0.000696279 1.00034)
(0 0.000615363 1.00039)
(0 0.0005245 1.00043)
(0 0.000427395 1.00047)
(0 0.000336877 1.0005)
(0 0.000149626 1.00053)
(0 0.000126149 1.00225)
(0 0.000370297 0.999036)
(0 0.000632041 0.998993)
(0 0.000850857 0.999107)
(0 0.000963651 0.999219)
(0 0.00101527 0.999378)
(0 0.00105351 0.999552)
(0 0.00106333 0.999701)
(0 0.00106553 0.999839)
(0 0.00105498 0.999961)
(0 0.00102637 1.00007)
(0 0.000982294 1.00017)
(0 0.000924095 1.00025)
(0 0.000853376 1.00033)
(0 0.000771742 1.0004)
(0 0.000680083 1.00045)
(0 0.000578363 1.0005)
(0 0.000470029 1.00054)
(0 0.000370699 1.00057)
(0 0.000165286 1.00061)
(0 0.000356568 0.99542)
(0 0.000679473 0.998705)
(0 0.000756616 0.998951)
(0 0.000908124 0.999125)
(0 0.0010473 0.999267)
(0 0.00116926 0.99942)
(0 0.00122282 0.999554)
(0 0.00123728 0.999701)
(0 0.00122885 0.999848)
(0 0.00119761 0.999982)
(0 0.00115227 1.0001)
(0 0.00109395 1.00021)
(0 0.00102286 1.00031)
(0 0.000940231 1.00039)
(0 0.000847118 1.00046)
(0 0.000744344 1.00053)
(0 0.000631653 1.00058)
(0 0.000511992 1.00062)
(0 0.000404053 1.00065)
(0 0.00018088 1.00069)
(0 0.000305695 1.00132)
(0 0.000760179 0.998407)
(0 0.00104917 0.998591)
(0 0.00121524 0.998845)
(0 0.00130095 0.999126)
(0 0.00134291 0.999352)
(0 0.00136976 0.999548)
(0 0.0013865 0.999726)
(0 0.00137133 0.99988)
(0 0.00133318 1.00002)
(0 0.00127721 1.00015)
(0 0.00120532 1.00027)
(0 0.00112099 1.00037)
(0 0.00102577 1.00046)
(0 0.00092072 1.00054)
(0 0.000806641 1.0006)
(0 0.000683078 1.00066)
(0 0.000552409 1.0007)
(0 0.000436163 1.00074)
(0 0.000195911 1.00077)
(0 0.000469203 0.994915)
(0 0.00104693 0.998202)
(0 0.00128834 0.998525)
(0 0.00148633 0.99879)
(0 0.00158387 0.999037)
(0 0.00161017 0.999275)
(0 0.00160928 0.999515)
(0 0.00157831 0.999721)
(0 0.0015314 0.999905)
(0 0.00147366 1.00007)
(0 0.00140046 1.00021)
(0 0.0013143 1.00033)
(0 0.00121674 1.00044)
(0 0.00110882 1.00053)
(0 0.000991784 1.00061)
(0 0.000866396 1.00068)
(0 0.000732139 1.00074)
(0 0.000590763 1.00079)
(0 0.000466809 1.00082)
(0 0.00021043 1.00086)
(0 0.000610356 1.00055)
(0 0.00136487 0.998018)
(0 0.0016336 0.998416)
(0 0.00174811 0.998776)
(0 0.00179494 0.999063)
(0 0.00181764 0.999323)
(0 0.00180482 0.99955)
(0 0.0017606 0.999758)
(0 0.00169877 0.999951)
(0 0.00161816 1.00012)
(0 0.00152498 1.00027)
(0 0.00142205 1.0004)
(0 0.00130945 1.00051)
(0 0.00118833 1.00061)
(0 0.00105928 1.0007)
(0 0.000922756 1.00077)
(0 0.000778173 1.00083)
(0 0.000626653 1.00087)
(0 0.000495596 1.00091)
(0 0.000224143 1.00095)
(0 0.000971301 0.9941)
(0 0.00197981 0.997693)
(0 0.00208534 0.998236)
(0 0.00212571 0.998654)
(0 0.00211166 0.999013)
(0 0.00207128 0.99932)
(0 0.00201212 0.999581)
(0 0.00194262 0.999814)
(0 0.0018557 1.00001)
(0 0.00175523 1.00019)
(0 0.00164546 1.00034)
(0 0.00152592 1.00048)
(0 0.0013985 1.0006)
(0 0.00126421 1.0007)
(0 0.00112314 1.00078)
(0 0.000975677 1.00085)
(0 0.000821131 1.00091)
(0 0.00065987 1.00096)
(0 0.000522533 1.001)
(0 0.000237231 1.00104)
(0 0.00131281 0.999495)
(0 0.00257173 0.997587)
(0 0.00255268 0.998188)
(0 0.00248462 0.998639)
(0 0.00240919 0.999016)
(0 0.00232829 0.999342)
(0 0.00223786 0.999628)
(0 0.00213243 0.999874)
(0 0.00201572 1.00008)
(0 0.00189273 1.00027)
(0 0.00176216 1.00043)
(0 0.00162507 1.00056)
(0 0.0014829 1.00068)
(0 0.00133551 1.00079)
(0 0.00118273 1.00087)
(0 0.00102481 1.00094)
(0 0.00086083 1.001)
(0 0.000690388 1.00105)
(0 0.000547491 1.00109)
(0 0.000249533 1.00113)
)
;

boundaryField
{
    movingWall
    {
        type            zeroGradient;
    }
    leftSide
    {
        type            fixedValue;
        value           uniform (0 0 1);
    }
    rightSide
    {
        type            zeroGradient;
    }
    bottomWall
    {
        type            noSlip;
    }
    bottomWall2
    {
        type            zeroGradient;
    }
    frontAndBack
    {
        type            empty;
    }
}


// ************************************************************************* //
