/*--------------------------------*- C++ -*----------------------------------*\
  =========                 |
  \\      /  F ield         | OpenFOAM: The Open Source CFD Toolbox
   \\    /   O peration     | Website:  https://openfoam.org
    \\  /    A nd           | Version:  10
     \\/     M anipulation  |
\*---------------------------------------------------------------------------*/
FoamFile
{
    format      ascii;
    class       volScalarField;
    location    "0.8";
    object      p;
}
// * * * * * * * * * * * * * * * * * * * * * * * * * * * * * * * * * * * * * //

dimensions      [0 2 -2 0 0 0 0];

internalField   nonuniform List<scalar> 
1200
(
4.12917e-10
-0.00125194
-0.00183962
-0.00230902
-0.00271835
-0.00307777
-0.00339405
-0.00367407
-0.00392411
-0.00414923
-0.00435346
-0.00453915
-0.0047075
-0.00485944
-0.00499552
-0.00511575
-0.00522023
-0.00530797
-0.0053763
-0.00544177
-0.000334218
-0.00141546
-0.00192317
-0.00237967
-0.00279239
-0.00315966
-0.00348493
-0.00377359
-0.00403117
-0.00426276
-0.00447184
-0.00466102
-0.00483241
-0.00498701
-0.00512502
-0.00524706
-0.00535316
-0.00544209
-0.00551224
-0.00557931
-0.00119618
-0.00189547
-0.00223998
-0.00262833
-0.0030057
-0.00335169
-0.00366355
-0.00394396
-0.00419696
-0.00442559
-0.00463257
-0.00482036
-0.00499046
-0.00514381
-0.00528128
-0.00540306
-0.00550874
-0.00559776
-0.00566812
-0.00573553
-0.00227235
-0.00260964
-0.00276151
-0.00304693
-0.00335561
-0.0036517
-0.00392866
-0.00418491
-0.00442068
-0.00463713
-0.00483529
-0.00501605
-0.00518064
-0.00532995
-0.00546403
-0.00558303
-0.00568695
-0.00577458
-0.0058442
-0.00591187
-0.00330913
-0.00342319
-0.00342069
-0.00359802
-0.00381918
-0.00404755
-0.0042735
-0.00449174
-0.00469985
-0.00489587
-0.00507841
-0.00524739
-0.00540271
-0.00554416
-0.00567221
-0.00578693
-0.00588722
-0.00597236
-0.0060403
-0.00610744
-0.00418316
-0.00420857
-0.00412685
-0.0042188
-0.00435545
-0.00451199
-0.00467996
-0.00485334
-0.00502658
-0.00519541
-0.00535741
-0.00551058
-0.00565332
-0.00578511
-0.00590531
-0.00601307
-0.00610846
-0.00619019
-0.00625559
-0.00632207
-0.00487465
-0.0048951
-0.00480315
-0.00484705
-0.00492078
-0.00501596
-0.00512961
-0.00525696
-0.00539277
-0.00553194
-0.00566977
-0.00580345
-0.00593116
-0.00605101
-0.00616158
-0.00626234
-0.00635162
-0.00642809
-0.0064899
-0.00655473
-0.00541429
-0.00546144
-0.00540091
-0.00543169
-0.00547189
-0.00552571
-0.00559683
-0.00568505
-0.00578648
-0.00589585
-0.00600934
-0.00612335
-0.00623445
-0.00634067
-0.00644081
-0.00653266
-0.00661524
-0.00668729
-0.0067449
-0.00680735
-0.00585912
-0.00592978
-0.00591106
-0.00595267
-0.00598393
-0.0060173
-0.00606327
-0.0061238
-0.00619752
-0.00628174
-0.0063725
-0.0064663
-0.00656088
-0.00665382
-0.00674214
-0.0068248
-0.00690034
-0.00696627
-0.00702004
-0.00708063
-0.00625976
-0.00633822
-0.0063508
-0.00641058
-0.00644733
-0.00647762
-0.00651396
-0.00655968
-0.00661597
-0.00668123
-0.00675351
-0.00683085
-0.00691036
-0.00698946
-0.00706705
-0.00714072
-0.00720827
-0.00726883
-0.00731747
-0.00737446
-0.00665009
-0.00672282
-0.00674985
-0.00682286
-0.00686987
-0.00690665
-0.0069444
-0.00698683
-0.00703448
-0.00708808
-0.00714753
-0.00721116
-0.00727762
-0.00734586
-0.00741301
-0.00747732
-0.00753833
-0.007593
-0.0076372
-0.00769181
-0.00705246
-0.00711294
-0.0071409
-0.00721668
-0.00727028
-0.00731571
-0.00735991
-0.00740442
-0.00745101
-0.00750042
-0.00755234
-0.00760713
-0.00766446
-0.00772248
-0.00778048
-0.00783785
-0.00789156
-0.00794055
-0.00798002
-0.00803076
-0.00747021
-0.0075186
-0.0075415
-0.00761215
-0.0076665
-0.00771705
-0.00776683
-0.0078165
-0.00786555
-0.00791402
-0.00796344
-0.00801399
-0.00806493
-0.00811655
-0.00816833
-0.00821795
-0.00826591
-0.00831075
-0.00834578
-0.00839368
-0.00791201
-0.0079512
-0.00796821
-0.00802939
-0.00807901
-0.00812917
-0.00818126
-0.00823347
-0.00828473
-0.00833535
-0.00838443
-0.00843222
-0.00848015
-0.008528
-0.00857421
-0.00861997
-0.00866359
-0.00870273
-0.00873384
-0.00877882
-0.00837309
-0.00840716
-0.00842092
-0.00847282
-0.00851517
-0.0085614
-0.00861162
-0.00866375
-0.00871605
-0.00876672
-0.008816
-0.00886441
-0.00891101
-0.00895532
-0.00899942
-0.00904162
-0.00908088
-0.00911849
-0.00914618
-0.00918733
-0.00885498
-0.00888636
-0.00889978
-0.0089449
-0.00898014
-0.00902007
-0.00906591
-0.00911531
-0.00916511
-0.0092148
-0.00926362
-0.00931045
-0.00935557
-0.00940027
-0.00944215
-0.00948132
-0.00951966
-0.00955387
-0.00957953
-0.00962026
-0.00936021
-0.00939039
-0.00940518
-0.00944583
-0.00947556
-0.00951043
-0.00955086
-0.00959451
-0.00964069
-0.0096876
-0.00973368
-0.00977914
-0.00982397
-0.00986593
-0.00990612
-0.00994562
-0.009981
-0.0100136
-0.0100372
-0.0100739
-0.00988041
-0.00990986
-0.00992693
-0.00996584
-0.00999281
-0.0100237
-0.0100593
-0.0100988
-0.01014
-0.0101818
-0.0102249
-0.0102684
-0.01031
-0.010351
-0.0103912
-0.0104275
-0.0104625
-0.0104956
-0.0105182
-0.010555
-0.0104291
-0.0104574
-0.0104766
-0.0105146
-0.0105403
-0.010569
-0.0106014
-0.0106357
-0.0106717
-0.0107098
-0.0107482
-0.0107861
-0.010825
-0.0108641
-0.0109001
-0.0109359
-0.0109701
-0.011
-0.0110219
-0.0110575
-0.0109892
-0.0110166
-0.0110374
-0.0110751
-0.0111012
-0.0111299
-0.0111605
-0.0111928
-0.0112267
-0.0112607
-0.0112952
-0.0113316
-0.0113677
-0.0114017
-0.011437
-0.0114711
-0.0115019
-0.0115331
-0.0115541
-0.0115871
-0.0115775
-0.0116038
-0.011626
-0.0116636
-0.0116904
-0.0117184
-0.0117481
-0.0117788
-0.0118087
-0.0118391
-0.0118711
-0.0119027
-0.0119337
-0.0119671
-0.0119991
-0.0120286
-0.0120598
-0.0120886
-0.0121083
-0.012143
-0.0121855
-0.0122106
-0.0122334
-0.0122704
-0.0122975
-0.0123265
-0.0123567
-0.0123861
-0.0124162
-0.0124468
-0.0124761
-0.0125052
-0.0125363
-0.0125657
-0.0125936
-0.0126236
-0.0126511
-0.0126767
-0.0126953
-0.0127257
-0.0128169
-0.012841
-0.0128646
-0.0129008
-0.0129287
-0.0129575
-0.0129862
-0.0130155
-0.0130444
-0.0130717
-0.0130997
-0.0131294
-0.0131569
-0.0131835
-0.013213
-0.0132393
-0.0132645
-0.0132919
-0.0133092
-0.0133397
-0.0134843
-0.0135068
-0.0135292
-0.0135637
-0.0135909
-0.0136196
-0.0136503
-0.0136795
-0.0137064
-0.0137341
-0.0137623
-0.0137879
-0.0138138
-0.0138422
-0.0138662
-0.0138895
-0.0139153
-0.0139377
-0.0139529
-0.0139832
-0.014172
-0.0141938
-0.0142172
-0.0142499
-0.0142757
-0.0143052
-0.0143348
-0.0143635
-0.0143931
-0.0144212
-0.0144462
-0.0144721
-0.0144999
-0.0145232
-0.014547
-0.0145729
-0.0145939
-0.014616
-0.0146311
-0.0146575
-0.0148936
-0.0149143
-0.0149363
-0.0149677
-0.0149941
-0.0150214
-0.0150503
-0.0150811
-0.0151103
-0.015137
-0.0151644
-0.0151915
-0.0152132
-0.0152361
-0.0152612
-0.0152814
-0.0153027
-0.0153257
-0.0153388
-0.0153662
-0.0156592
-0.0156793
-0.0157017
-0.0157325
-0.0157556
-0.0157819
-0.0158102
-0.0158369
-0.0158629
-0.0158911
-0.0159193
-0.0159425
-0.015967
-0.015992
-0.0160099
-0.0160287
-0.0160495
-0.0160672
-0.016079
-0.016105
-0.0164316
-0.0164502
-0.0164733
-0.0165021
-0.0165276
-0.0165549
-0.0165815
-0.0166085
-0.0166371
-0.0166648
-0.0166886
-0.0167159
-0.0167447
-0.0167663
-0.0167896
-0.0168135
-0.0168304
-0.0168486
-0.0168602
-0.0168823
-0.0172988
-0.0173169
-0.0173363
-0.0173638
-0.0173843
-0.0174043
-0.0174248
-0.0174463
-0.0174666
-0.0174843
-0.0175065
-0.01753
-0.0175474
-0.0175697
-0.0175946
-0.0176132
-0.0176336
-0.017656
-0.017667
-0.0176913
-0.0181634
-0.0181778
-0.0181988
-0.0182249
-0.0182471
-0.0182712
-0.0182953
-0.0183165
-0.0183339
-0.0183551
-0.0183759
-0.0183903
-0.0184097
-0.0184308
-0.0184447
-0.0184616
-0.0184818
-0.0184998
-0.0185132
-0.018538
-0.0191178
-0.0191344
-0.0191512
-0.0191718
-0.0191871
-0.0192035
-0.0192187
-0.0192313
-0.0192477
-0.0192622
-0.0192705
-0.0192858
-0.0193032
-0.0193134
-0.0193274
-0.0193442
-0.0193554
-0.0193697
-0.0193793
-0.0194008
-0.0200853
-0.020096
-0.0201134
-0.0201363
-0.0201558
-0.0201747
-0.0201915
-0.020211
-0.020226
-0.0202332
-0.020246
-0.0202571
-0.0202589
-0.020265
-0.0202746
-0.0202787
-0.0202851
-0.0202961
-0.0202989
-0.0203157
-0.0211573
-0.0211695
-0.0211776
-0.0211862
-0.0211879
-0.0211898
-0.0211969
-0.0212008
-0.0212012
-0.021211
-0.0212207
-0.021222
-0.0212277
-0.0212358
-0.0212368
-0.021239
-0.0212456
-0.0212527
-0.0212551
-0.021272
-0.0221756
-0.022182
-0.0221973
-0.0222139
-0.0222252
-0.022238
-0.0222423
-0.0222404
-0.0222447
-0.0222452
-0.0222381
-0.0222379
-0.0222412
-0.0222376
-0.0222351
-0.0222371
-0.0222357
-0.022236
-0.0222346
-0.0222467
-0.0234475
-0.0234466
-0.0234305
-0.0234131
-0.0233939
-0.0233719
-0.0233523
-0.0233426
-0.02333
-0.0233117
-0.0233012
-0.0232935
-0.0232796
-0.0232686
-0.0232632
-0.0232557
-0.0232492
-0.0232492
-0.0232429
-0.0232508
-0.0245728
-0.0245697
-0.0245693
-0.0245658
-0.0245451
-0.024523
-0.024503
-0.0244743
-0.0244401
-0.0244139
-0.0243902
-0.0243613
-0.0243364
-0.0243194
-0.0243031
-0.024289
-0.0242818
-0.0242809
-0.0242776
-0.024286
-0.025901
-0.0258783
-0.0258241
-0.0257657
-0.0257125
-0.025668
-0.0256217
-0.0255759
-0.0255397
-0.025505
-0.0254648
-0.0254283
-0.0253988
-0.025369
-0.02534
-0.0253174
-0.0252994
-0.025287
-0.0252749
-0.0252799
-0.027259
-0.0272403
-0.0271883
-0.0271238
-0.0270424
-0.0269562
-0.0268733
-0.0267997
-0.0267293
-0.0266584
-0.0265948
-0.0265408
-0.0264899
-0.0264414
-0.0263997
-0.0263634
-0.026331
-0.0263066
-0.0262829
-0.0262772
-0.0283248
-0.0282833
-0.0281992
-0.0281091
-0.0280189
-0.0279385
-0.0278649
-0.0277915
-0.0277164
-0.0276462
-0.0275837
-0.0275248
-0.0274692
-0.0274211
-0.0273801
-0.0273442
-0.0273145
-0.0272944
-0.0272735
-0.0272682
-0.0295552
-0.0295057
-0.0293214
-0.029145
-0.0289826
-0.0288438
-0.0287177
-0.0286034
-0.0285041
-0.0284193
-0.0283441
-0.028277
-0.0282195
-0.0281716
-0.0281316
-0.0280985
-0.02807
-0.028058
-0.0280382
-0.0280334
-0.00379778
-0.00376152
-0.00375032
-0.00375803
-0.00376435
-0.00377184
-0.00378238
-0.00379648
-0.00381466
-0.00383778
-0.00386533
-0.00389682
-0.00393148
-0.00396785
-0.0040052
-0.00404205
-0.00407659
-0.00410738
-0.00413236
-0.00414985
-0.00377389
-0.00376092
-0.00375688
-0.00375476
-0.00375688
-0.00376345
-0.00377421
-0.0037894
-0.00380981
-0.0038349
-0.00386427
-0.0038979
-0.00393439
-0.00397262
-0.00401137
-0.00404895
-0.00408439
-0.00411641
-0.00414324
-0.00416288
-0.00373365
-0.0037381
-0.00374133
-0.00373378
-0.00373502
-0.00374279
-0.00375607
-0.0037755
-0.00380068
-0.00383075
-0.00386532
-0.003903
-0.00394306
-0.00398495
-0.00402658
-0.00406653
-0.00410349
-0.00413599
-0.00416374
-0.00418547
-0.00368192
-0.00369676
-0.00370479
-0.00369901
-0.00370138
-0.0037122
-0.00373091
-0.00375637
-0.00378773
-0.00382454
-0.00386562
-0.00390964
-0.00395551
-0.00400184
-0.00404759
-0.00409165
-0.00413193
-0.00416681
-0.00419541
-0.00421755
-0.00362239
-0.00364063
-0.00365237
-0.00365106
-0.00365866
-0.00367592
-0.00370216
-0.00373599
-0.00377602
-0.00382056
-0.0038688
-0.0039197
-0.00397176
-0.00402364
-0.00407398
-0.00412151
-0.00416501
-0.00420316
-0.00423474
-0.00425945
-0.00355197
-0.00356706
-0.00358012
-0.00358794
-0.00360506
-0.00363127
-0.00366728
-0.0037116
-0.00376195
-0.00381683
-0.00387457
-0.00393346
-0.00399265
-0.00405083
-0.00410651
-0.00415857
-0.0042056
-0.00424626
-0.00427987
-0.00430724
-0.00347164
-0.00348018
-0.00349194
-0.0035123
-0.00354292
-0.00358164
-0.0036295
-0.00368541
-0.00374737
-0.0038131
-0.00388073
-0.00394907
-0.00401651
-0.00408139
-0.00414279
-0.00419965
-0.00425083
-0.00429535
-0.00433187
-0.00436163
-0.00338094
-0.00338061
-0.00339146
-0.00342495
-0.00347252
-0.00352785
-0.0035906
-0.00366022
-0.00373466
-0.00381194
-0.00389035
-0.00396803
-0.00404364
-0.00411608
-0.0041839
-0.00424572
-0.00430081
-0.00434848
-0.00438773
-0.0044205
-0.00327865
-0.00327011
-0.00328387
-0.00333157
-0.00339785
-0.00347202
-0.00355207
-0.00363645
-0.00372409
-0.00381373
-0.00390312
-0.00399051
-0.00407451
-0.00415403
-0.0042283
-0.00429609
-0.00435599
-0.00440714
-0.00444875
-0.00448368
-0.00316043
-0.00314717
-0.00316999
-0.00323538
-0.00332217
-0.0034168
-0.00351506
-0.00361548
-0.00371719
-0.00381885
-0.0039191
-0.00401624
-0.00410857
-0.00419515
-0.00427536
-0.0043483
-0.00441311
-0.00446855
-0.00451351
-0.00455143
-0.00302148
-0.00301059
-0.0030532
-0.00313953
-0.00324745
-0.0033628
-0.0034803
-0.00359767
-0.00371381
-0.00382792
-0.0039386
-0.00404474
-0.00414528
-0.00423903
-0.00432508
-0.004403
-0.00447219
-0.00453151
-0.00457994
-0.00462113
-0.00285809
-0.0028615
-0.00293608
-0.00304823
-0.00317751
-0.00331304
-0.00344949
-0.00358405
-0.0037152
-0.00384152
-0.00396228
-0.00407705
-0.00418499
-0.00428533
-0.00437736
-0.00446026
-0.00453345
-0.00459624
-0.00464761
-0.00469178
-0.00266617
-0.00270083
-0.00282011
-0.00296284
-0.00311444
-0.00326889
-0.00342335
-0.0035748
-0.00372045
-0.00385916
-0.00399018
-0.00411309
-0.00422805
-0.00433489
-0.00443277
-0.00452075
-0.00459797
-0.00466356
-0.00471693
-0.00476343
-0.00244294
-0.00253392
-0.00270713
-0.00288521
-0.00306005
-0.00323327
-0.0034048
-0.00357151
-0.00373073
-0.00388108
-0.00402177
-0.004153
-0.0042749
-0.00438759
-0.00449089
-0.0045839
-0.00466527
-0.00473402
-0.00478941
-0.00483804
-0.00218515
-0.00236131
-0.00259578
-0.00281227
-0.0030119
-0.00320557
-0.00339393
-0.00357498
-0.00374649
-0.00390731
-0.00405741
-0.00419681
-0.00432574
-0.00444438
-0.00455249
-0.00464958
-0.00473481
-0.0048068
-0.00486452
-0.00491582
-0.00189462
-0.00218439
-0.00248498
-0.00273986
-0.00296855
-0.00318471
-0.00339049
-0.00358501
-0.00376781
-0.00393856
-0.00409737
-0.00424463
-0.00438057
-0.00450505
-0.00461791
-0.00471896
-0.00480744
-0.0048822
-0.00494204
-0.00499604
-0.00157232
-0.00200191
-0.00236925
-0.00266435
-0.0029261
-0.00316714
-0.00339099
-0.00359929
-0.00379319
-0.00397354
-0.00414111
-0.00429614
-0.00443881
-0.00456915
-0.00468693
-0.00479181
-0.00488339
-0.00496051
-0.00502173
-0.005078
-0.00122273
-0.00181451
-0.00224483
-0.00258324
-0.00288098
-0.003149
-0.00339254
-0.00361532
-0.00382073
-0.00401107
-0.00418731
-0.00434995
-0.00449934
-0.00463544
-0.00475813
-0.00486724
-0.00496202
-0.00504134
-0.00510371
-0.00516185
-0.000845063
-0.00161767
-0.00210914
-0.00249257
-0.00282796
-0.00312544
-0.00339102
-0.0036305
-0.00384893
-0.00404975
-0.00423498
-0.00440539
-0.00456126
-0.00470285
-0.00483034
-0.00494343
-0.00504158
-0.00512359
-0.00518744
-0.00524761
-0.0004301
-0.00140492
-0.00195805
-0.00238828
-0.00276261
-0.00309181
-0.00338288
-0.00364225
-0.003876
-0.00408879
-0.00428347
-0.00446159
-0.00462396
-0.00477097
-0.0049029
-0.00501982
-0.00512131
-0.00520615
-0.00527209
-0.00533492
)
;

boundaryField
{
    movingWall
    {
        type            zeroGradient;
    }
    leftSide
    {
        type            zeroGradient;
    }
    rightSide
    {
        type            zeroGradient;
    }
    bottomWall
    {
        type            zeroGradient;
    }
    bottomWall2
    {
        type            zeroGradient;
    }
    frontAndBack
    {
        type            empty;
    }
}


// ************************************************************************* //
