/*--------------------------------*- C++ -*----------------------------------*\
  =========                 |
  \\      /  F ield         | OpenFOAM: The Open Source CFD Toolbox
   \\    /   O peration     | Website:  https://openfoam.org
    \\  /    A nd           | Version:  10
     \\/     M anipulation  |
\*---------------------------------------------------------------------------*/
FoamFile
{
    format      ascii;
    class       surfaceScalarField;
    location    "0.8";
    object      phi;
}
// * * * * * * * * * * * * * * * * * * * * * * * * * * * * * * * * * * * * * //

dimensions      [0 3 -1 0 0 0 0];

internalField   nonuniform List<scalar> 
2320
(
1.69833e-07
3.42374e-05
-3.44073e-05
1.48167e-07
3.57888e-05
-3.57672e-05
1.37598e-07
3.71336e-05
-3.71231e-05
1.30078e-07
3.85301e-05
-3.85226e-05
1.23505e-07
3.99777e-05
-3.99711e-05
1.17142e-07
4.1478e-05
-4.14716e-05
1.10898e-07
4.30325e-05
-4.30263e-05
1.04787e-07
4.46435e-05
-4.46374e-05
9.86299e-08
4.63131e-05
-4.6307e-05
9.22779e-08
4.80439e-05
-4.80375e-05
8.57182e-08
4.98379e-05
-4.98313e-05
7.89083e-08
5.16977e-05
-5.16909e-05
7.1795e-08
5.36258e-05
-5.36187e-05
6.4405e-08
5.56247e-05
-5.56173e-05
5.67202e-08
5.76972e-05
-5.76895e-05
4.86714e-08
5.9846e-05
-5.9838e-05
4.02946e-08
6.2074e-05
-6.20657e-05
3.16435e-08
6.43841e-05
-6.43754e-05
2.24462e-08
6.67794e-05
-6.67702e-05
6.92637e-05
-6.92543e-05
2.26909e-07
3.40105e-05
1.96439e-07
3.58193e-05
1.75028e-07
3.7155e-05
1.6104e-07
3.85441e-05
1.49818e-07
3.99889e-05
1.39829e-07
4.1488e-05
1.30736e-07
4.30416e-05
1.22137e-07
4.46521e-05
1.13847e-07
4.63214e-05
1.05705e-07
4.8052e-05
9.75122e-08
4.98461e-05
8.91585e-08
5.1706e-05
8.0659e-08
5.36343e-05
7.19489e-08
5.56334e-05
6.30043e-08
5.77062e-05
5.38694e-08
5.98552e-05
4.44737e-08
6.20834e-05
3.46515e-08
6.43939e-05
2.46577e-08
6.67894e-05
6.92742e-05
2.66432e-07
3.37441e-05
2.40606e-07
3.58451e-05
2.15481e-07
3.71802e-05
1.93836e-07
3.85657e-05
1.7605e-07
4.00067e-05
1.62096e-07
4.15019e-05
1.50007e-07
4.30537e-05
1.39079e-07
4.4663e-05
1.2885e-07
4.63317e-05
1.18996e-07
4.80619e-05
1.09375e-07
4.98557e-05
9.98814e-08
5.17155e-05
9.03002e-08
5.36439e-05
8.05614e-08
5.56432e-05
7.06425e-08
5.77161e-05
6.04352e-08
5.98654e-05
4.99214e-08
6.20939e-05
3.91943e-08
6.44046e-05
2.81283e-08
6.68004e-05
6.92858e-05
2.88051e-07
3.3456e-05
2.75056e-07
3.58581e-05
2.50314e-07
3.72049e-05
2.26909e-07
3.85891e-05
2.0686e-07
4.00268e-05
1.89052e-07
4.15197e-05
1.73739e-07
4.3069e-05
1.60026e-07
4.46767e-05
1.47286e-07
4.63444e-05
1.35234e-07
4.80739e-05
1.2361e-07
4.98673e-05
1.12147e-07
5.1727e-05
1.00817e-07
5.36552e-05
8.95337e-08
5.56545e-05
7.8133e-08
5.77275e-05
6.65789e-08
5.98769e-05
5.4837e-08
6.21057e-05
4.27795e-08
6.44167e-05
3.04074e-08
6.68128e-05
6.92986e-05
2.96922e-07
3.31591e-05
2.94371e-07
3.58607e-05
2.73865e-07
3.72254e-05
2.51951e-07
3.8611e-05
2.31286e-07
4.00474e-05
2.12459e-07
4.15386e-05
1.95014e-07
4.30865e-05
1.79017e-07
4.46927e-05
1.64298e-07
4.63591e-05
1.50508e-07
4.80877e-05
1.37346e-07
4.98805e-05
1.24659e-07
5.17397e-05
1.12158e-07
5.36677e-05
9.96361e-08
5.5667e-05
8.70645e-08
5.774e-05
7.43612e-08
5.98896e-05
6.14123e-08
6.21186e-05
4.82486e-08
6.44298e-05
3.46922e-08
6.68264e-05
6.93127e-05
3.02372e-07
3.28568e-05
3.06745e-07
3.58563e-05
2.9235e-07
3.72398e-05
2.74681e-07
3.86287e-05
2.55579e-07
4.00665e-05
2.36372e-07
4.15578e-05
2.17973e-07
4.31049e-05
2.00535e-07
4.47101e-05
1.8395e-07
4.63757e-05
1.68074e-07
4.81036e-05
1.52816e-07
4.98957e-05
1.37994e-07
5.17545e-05
1.23565e-07
5.36821e-05
1.09444e-07
5.56811e-05
9.53592e-08
5.77541e-05
8.11361e-08
5.99039e-05
6.67823e-08
6.2133e-05
5.21152e-08
6.44445e-05
3.71189e-08
6.68414e-05
6.9328e-05
3.09814e-07
3.25469e-05
3.14984e-07
3.58511e-05
3.02861e-07
3.72519e-05
2.88523e-07
3.8643e-05
2.71549e-07
4.00835e-05
2.53458e-07
4.15759e-05
2.35384e-07
4.31229e-05
2.17671e-07
4.47279e-05
2.00468e-07
4.63929e-05
1.83859e-07
4.81202e-05
1.6768e-07
4.99119e-05
1.51891e-07
5.17703e-05
1.36334e-07
5.36977e-05
1.20824e-07
5.56966e-05
1.05386e-07
5.77696e-05
9.00184e-08
5.99192e-05
7.44474e-08
6.21486e-05
5.85335e-08
6.44604e-05
4.22265e-08
6.68577e-05
6.93449e-05
3.19918e-07
3.2227e-05
3.2593e-07
3.58451e-05
3.14434e-07
3.72634e-05
3.01009e-07
3.86565e-05
2.86515e-07
4.0098e-05
2.70747e-07
4.15916e-05
2.53481e-07
4.31402e-05
2.35683e-07
4.47457e-05
2.17818e-07
4.64108e-05
2.00003e-07
4.8138e-05
1.82453e-07
4.99295e-05
1.65138e-07
5.17876e-05
1.48011e-07
5.37148e-05
1.31098e-07
5.57135e-05
1.14234e-07
5.77864e-05
9.71655e-08
5.99363e-05
7.9925e-08
6.21658e-05
6.25172e-08
6.44778e-05
4.47733e-08
6.68754e-05
6.9363e-05
3.32514e-07
3.18945e-05
3.39527e-07
3.58381e-05
3.25117e-07
3.72778e-05
3.10944e-07
3.86706e-05
2.96858e-07
4.01121e-05
2.8209e-07
4.16064e-05
2.66424e-07
4.31559e-05
2.49622e-07
4.47625e-05
2.32196e-07
4.64282e-05
2.14616e-07
4.81556e-05
1.96883e-07
4.99472e-05
1.79039e-07
5.18054e-05
1.61177e-07
5.37327e-05
1.432e-07
5.57315e-05
1.25083e-07
5.78046e-05
1.0694e-07
5.99544e-05
8.85614e-08
6.21842e-05
6.96948e-08
6.44967e-05
5.04402e-08
6.68947e-05
6.93828e-05
3.4617e-07
3.15483e-05
3.57465e-07
3.58268e-05
3.42283e-07
3.7293e-05
3.27209e-07
3.86857e-05
3.12454e-07
4.01268e-05
2.97184e-07
4.16217e-05
2.81328e-07
4.31717e-05
2.64648e-07
4.47791e-05
2.47071e-07
4.64458e-05
2.28739e-07
4.81739e-05
2.10028e-07
4.99659e-05
1.91195e-07
5.18243e-05
1.7217e-07
5.37517e-05
1.52989e-07
5.57507e-05
1.33688e-07
5.78239e-05
1.14042e-07
5.99741e-05
9.40698e-08
6.22041e-05
7.39432e-08
6.45168e-05
5.33783e-08
6.69152e-05
6.9404e-05
3.60661e-07
3.11877e-05
3.76156e-07
3.58113e-05
3.58854e-07
3.73103e-05
3.41522e-07
3.8703e-05
3.25158e-07
4.01432e-05
3.09263e-07
4.16376e-05
2.93262e-07
4.31877e-05
2.77e-07
4.47954e-05
2.60093e-07
4.64627e-05
2.42442e-07
4.81916e-05
2.24076e-07
4.99843e-05
2.04963e-07
5.18434e-05
1.8538e-07
5.37713e-05
1.65448e-07
5.57706e-05
1.4507e-07
5.78442e-05
1.24351e-07
5.99948e-05
1.03269e-07
6.22252e-05
8.14972e-08
6.45386e-05
5.92341e-08
6.69375e-05
6.94267e-05
3.75081e-07
3.08126e-05
3.97623e-07
3.57888e-05
3.81832e-07
3.73261e-05
3.63685e-07
3.87212e-05
3.45604e-07
4.01613e-05
3.27795e-07
4.16554e-05
3.10128e-07
4.32054e-05
2.92251e-07
4.48133e-05
2.74069e-07
4.64809e-05
2.55364e-07
4.82103e-05
2.35969e-07
5.00037e-05
2.16105e-07
5.18633e-05
1.95693e-07
5.37917e-05
1.74663e-07
5.57916e-05
1.53209e-07
5.78657e-05
1.31314e-07
6.00167e-05
1.08873e-07
6.22477e-05
8.60649e-08
6.45614e-05
6.266e-08
6.69609e-05
6.94509e-05
3.88866e-07
3.04237e-05
4.16173e-07
3.57615e-05
3.99853e-07
3.73424e-05
3.80943e-07
3.87401e-05
3.62065e-07
4.01802e-05
3.43532e-07
4.16739e-05
3.2523e-07
4.32237e-05
3.07015e-07
4.48315e-05
2.88603e-07
4.64993e-05
2.69741e-07
4.82291e-05
2.50383e-07
5.0023e-05
2.30183e-07
5.18835e-05
2.09174e-07
5.38127e-05
1.8757e-07
5.58132e-05
1.65266e-07
5.7888e-05
1.42176e-07
6.00398e-05
1.18435e-07
6.22714e-05
9.39169e-08
6.45859e-05
6.87141e-08
6.69861e-05
6.94768e-05
4.03479e-07
3.00202e-05
4.38836e-07
3.57261e-05
4.24929e-07
3.73563e-05
4.06371e-07
3.87587e-05
3.86763e-07
4.01998e-05
3.66708e-07
4.1694e-05
3.46318e-07
4.32441e-05
3.25634e-07
4.48522e-05
3.04806e-07
4.65201e-05
2.83946e-07
4.825e-05
2.62733e-07
5.00442e-05
2.41162e-07
5.1905e-05
2.1911e-07
5.38347e-05
1.96299e-07
5.58361e-05
1.7277e-07
5.79115e-05
1.48729e-07
6.00638e-05
1.24043e-07
6.22961e-05
9.85585e-08
6.46114e-05
7.22429e-08
6.70124e-05
6.9504e-05
4.16893e-07
2.96034e-05
4.56437e-07
3.56866e-05
4.42143e-07
3.73706e-05
4.23737e-07
3.87771e-05
4.04579e-07
4.02189e-05
3.84638e-07
4.17139e-05
3.64261e-07
4.32645e-05
3.43684e-07
4.48727e-05
3.22811e-07
4.6541e-05
3.01393e-07
4.82714e-05
2.79605e-07
5.0066e-05
2.57322e-07
5.19273e-05
2.34335e-07
5.38577e-05
2.1067e-07
5.58597e-05
1.86264e-07
5.79359e-05
1.60833e-07
6.00893e-05
1.34375e-07
6.23226e-05
1.07208e-07
6.46386e-05
7.92178e-08
6.70404e-05
6.95329e-05
4.32232e-07
2.91711e-05
4.80478e-07
3.56383e-05
4.67835e-07
3.73833e-05
4.49343e-07
3.87956e-05
4.29373e-07
4.02389e-05
4.08309e-07
4.1735e-05
3.8637e-07
4.32864e-05
3.63703e-07
4.48954e-05
3.40504e-07
4.65642e-05
3.17087e-07
4.82948e-05
2.93298e-07
5.00898e-05
2.68992e-07
5.19516e-05
2.44271e-07
5.38825e-05
2.19062e-07
5.58849e-05
1.9316e-07
5.79618e-05
1.66623e-07
6.01158e-05
1.39466e-07
6.23497e-05
1.11139e-07
6.46669e-05
8.17306e-08
6.70698e-05
6.95631e-05
4.46525e-07
2.87246e-05
4.99575e-07
3.55853e-05
4.86563e-07
3.73963e-05
4.67857e-07
3.88143e-05
4.48226e-07
4.02585e-05
4.27835e-07
4.17554e-05
4.06552e-07
4.33077e-05
3.84479e-07
4.49175e-05
3.61696e-07
4.6587e-05
3.38063e-07
4.83185e-05
3.13667e-07
5.01142e-05
2.88778e-07
5.19765e-05
2.63218e-07
5.3908e-05
2.36747e-07
5.59114e-05
2.09484e-07
5.79891e-05
1.81388e-07
6.01439e-05
1.5215e-07
6.23789e-05
1.22142e-07
6.46969e-05
9.12243e-08
6.71007e-05
6.95954e-05
4.62237e-07
2.82624e-05
5.24348e-07
3.55232e-05
5.12114e-07
3.74085e-05
4.92482e-07
3.88339e-05
4.71636e-07
4.02794e-05
4.49738e-07
4.17773e-05
4.26882e-07
4.33305e-05
4.03033e-07
4.49413e-05
3.78239e-07
4.66118e-05
3.52702e-07
4.8344e-05
3.26609e-07
5.01403e-05
2.99724e-07
5.20034e-05
2.7212e-07
5.39356e-05
2.4408e-07
5.59394e-05
2.15411e-07
5.80178e-05
1.85815e-07
6.01735e-05
1.55514e-07
6.24092e-05
1.24126e-07
6.47283e-05
9.15777e-08
6.71333e-05
6.96286e-05
4.78455e-07
2.77839e-05
5.47721e-07
3.54539e-05
5.35921e-07
3.74203e-05
5.15828e-07
3.8854e-05
4.94718e-07
4.03005e-05
4.73147e-07
4.17988e-05
4.50805e-07
4.33529e-05
4.27524e-07
4.49646e-05
4.03225e-07
4.66361e-05
3.77944e-07
4.83693e-05
3.51479e-07
5.01668e-05
3.2404e-07
5.20308e-05
2.95765e-07
5.39639e-05
2.66366e-07
5.59688e-05
2.35853e-07
5.80483e-05
2.04565e-07
6.02048e-05
1.72239e-07
6.24416e-05
1.38817e-07
6.47617e-05
1.04319e-07
6.71678e-05
6.96647e-05
4.93971e-07
2.72899e-05
5.71909e-07
3.5376e-05
5.60444e-07
3.74318e-05
5.38962e-07
3.88755e-05
5.1619e-07
4.03233e-05
4.92381e-07
4.18226e-05
4.67728e-07
4.33775e-05
4.42261e-07
4.49901e-05
4.16011e-07
4.66623e-05
3.88725e-07
4.83966e-05
3.60612e-07
5.01949e-05
3.31734e-07
5.20597e-05
3.01836e-07
5.39938e-05
2.71096e-07
5.59996e-05
2.39635e-07
5.80797e-05
2.07077e-07
6.02373e-05
1.73428e-07
6.24752e-05
1.38891e-07
6.47962e-05
1.03305e-07
6.72034e-05
6.97013e-05
5.12264e-07
2.67777e-05
6.00746e-07
3.52875e-05
5.91006e-07
3.74415e-05
5.69458e-07
3.8897e-05
5.46457e-07
4.03463e-05
5.22963e-07
4.18461e-05
4.98727e-07
4.34018e-05
4.73627e-07
4.50152e-05
4.47366e-07
4.66886e-05
4.20079e-07
4.84238e-05
3.91617e-07
5.02234e-05
3.61634e-07
5.20897e-05
3.30451e-07
5.4025e-05
2.98128e-07
5.60319e-05
2.64455e-07
5.81134e-05
2.29608e-07
6.02722e-05
1.93703e-07
6.25111e-05
1.56405e-07
6.48335e-05
1.17654e-07
6.72421e-05
6.97414e-05
5.28003e-07
2.62497e-05
6.24903e-07
3.51906e-05
6.15191e-07
3.74512e-05
5.91715e-07
3.89205e-05
5.664e-07
4.03716e-05
5.39941e-07
4.18726e-05
5.12632e-07
4.34291e-05
4.84498e-07
4.50433e-05
4.55801e-07
4.67173e-05
4.26378e-07
4.84533e-05
3.95985e-07
5.02537e-05
3.64968e-07
5.21207e-05
3.33046e-07
5.40569e-05
2.99922e-07
5.6065e-05
2.65714e-07
5.81476e-05
2.30463e-07
6.03074e-05
1.93962e-07
6.25476e-05
1.56272e-07
6.48712e-05
1.17506e-07
6.72809e-05
6.97815e-05
5.47158e-07
2.57025e-05
6.57368e-07
3.50804e-05
6.50957e-07
3.74576e-05
6.28432e-07
3.8943e-05
6.03781e-07
4.03962e-05
5.78345e-07
4.1898e-05
5.51905e-07
4.34555e-05
5.24453e-07
4.50708e-05
4.95703e-07
4.6746e-05
4.65489e-07
4.84835e-05
4.34159e-07
5.02851e-05
4.01332e-07
5.21535e-05
3.6695e-07
5.40913e-05
3.31267e-07
5.61007e-05
2.94324e-07
5.81846e-05
2.55878e-07
6.03459e-05
2.15896e-07
6.25876e-05
1.74593e-07
6.49125e-05
1.317e-07
6.73238e-05
6.98258e-05
5.64516e-07
2.5138e-05
6.84481e-07
3.49604e-05
6.77359e-07
3.74648e-05
6.51468e-07
3.89689e-05
6.23047e-07
4.04247e-05
5.93467e-07
4.19276e-05
5.63169e-07
4.34858e-05
5.32091e-07
4.51018e-05
5.00292e-07
4.67778e-05
4.68117e-07
4.85157e-05
4.35087e-07
5.03181e-05
4.01208e-07
5.21874e-05
3.66567e-07
5.41259e-05
3.30941e-07
5.61363e-05
2.9393e-07
5.82216e-05
2.55571e-07
6.03842e-05
2.16139e-07
6.2627e-05
1.75034e-07
6.49536e-05
1.32359e-07
6.73665e-05
6.987e-05
5.82909e-07
2.45551e-05
7.17134e-07
3.48262e-05
7.15357e-07
3.74665e-05
6.92252e-07
3.8992e-05
6.66114e-07
4.04508e-05
6.3882e-07
4.19549e-05
6.10065e-07
4.35146e-05
5.79926e-07
4.5132e-05
5.4857e-07
4.68092e-05
5.15452e-07
4.85488e-05
4.80751e-07
5.03528e-05
4.44625e-07
5.22235e-05
4.06922e-07
5.41636e-05
3.67514e-07
5.61757e-05
3.26739e-07
5.82623e-05
2.84729e-07
6.04263e-05
2.4085e-07
6.26709e-05
1.9554e-07
6.49989e-05
1.48796e-07
6.74132e-05
6.99185e-05
6.02172e-07
2.39529e-05
7.48888e-07
3.46795e-05
7.45427e-07
3.747e-05
7.16927e-07
3.90205e-05
6.8526e-07
4.04825e-05
6.5226e-07
4.19879e-05
6.18538e-07
4.35483e-05
5.84226e-07
4.51663e-05
5.48976e-07
4.68444e-05
5.13253e-07
4.85845e-05
4.77076e-07
5.0389e-05
4.40081e-07
5.22605e-05
4.02028e-07
5.42017e-05
3.63015e-07
5.62148e-05
3.22789e-07
5.83026e-05
2.80892e-07
6.04681e-05
2.3774e-07
6.27141e-05
1.93004e-07
6.50437e-05
1.46349e-07
6.74599e-05
6.99668e-05
6.20961e-07
2.3332e-05
7.83225e-07
3.45172e-05
7.87255e-07
3.7466e-05
7.63597e-07
3.90442e-05
7.35778e-07
4.05103e-05
7.06742e-07
4.20169e-05
6.76146e-07
4.35789e-05
6.43518e-07
4.51989e-05
6.09158e-07
4.68788e-05
5.72829e-07
4.86208e-05
5.34483e-07
5.04273e-05
4.94341e-07
5.23007e-05
4.5279e-07
5.42432e-05
4.097e-07
5.62578e-05
3.64846e-07
5.83474e-05
3.18421e-07
6.05146e-05
2.70243e-07
6.27623e-05
2.2032e-07
6.50936e-05
1.68713e-07
6.75115e-05
7.00202e-05
6.38744e-07
2.26932e-05
8.1493e-07
3.4341e-05
8.17017e-07
3.74639e-05
7.8568e-07
3.90755e-05
7.49869e-07
4.05461e-05
7.12642e-07
4.20542e-05
6.74703e-07
4.36168e-05
6.36636e-07
4.5237e-05
5.98078e-07
4.69173e-05
5.58969e-07
4.86599e-05
5.19082e-07
5.04672e-05
4.78422e-07
5.23413e-05
4.36712e-07
5.42849e-05
3.93836e-07
5.63007e-05
3.50002e-07
5.83913e-05
3.05188e-07
6.05594e-05
2.59056e-07
6.28084e-05
2.11131e-07
6.51415e-05
1.61486e-07
6.75611e-05
7.00718e-05
6.61874e-07
2.20313e-05
8.57917e-07
3.4145e-05
8.69921e-07
3.74519e-05
8.46635e-07
3.90988e-05
8.17816e-07
4.05749e-05
7.87183e-07
4.20848e-05
7.54627e-07
4.36494e-05
7.19348e-07
4.52723e-05
6.81598e-07
4.69551e-05
6.41398e-07
4.87001e-05
5.99178e-07
5.05094e-05
5.54795e-07
5.23857e-05
5.08139e-07
5.43316e-05
4.59479e-07
5.63494e-05
4.08932e-07
5.84418e-05
3.56314e-07
6.0612e-05
3.01817e-07
6.28629e-05
2.46228e-07
6.51971e-05
1.88894e-07
6.76184e-05
7.01309e-05
6.73343e-07
2.1358e-05
8.81908e-07
3.39364e-05
8.90397e-07
3.74434e-05
8.54576e-07
3.91346e-05
8.12603e-07
4.06169e-05
7.69925e-07
4.21275e-05
7.27221e-07
4.36921e-05
6.85038e-07
4.53145e-05
6.4303e-07
4.69971e-05
6.01193e-07
4.8742e-05
5.58838e-07
5.05518e-05
5.15667e-07
5.24289e-05
4.71864e-07
5.43754e-05
4.27113e-07
5.63941e-05
3.80804e-07
5.84881e-05
3.32901e-07
6.06599e-05
2.83603e-07
6.29122e-05
2.3193e-07
6.52488e-05
1.78537e-07
6.76718e-05
7.01861e-05
7.00792e-07
2.06572e-05
9.34432e-07
3.37028e-05
9.5861e-07
3.74192e-05
9.38003e-07
3.91552e-05
9.09058e-07
4.06458e-05
8.76639e-07
4.21599e-05
8.40943e-07
4.37278e-05
8.01832e-07
4.53536e-05
7.59886e-07
4.7039e-05
7.14849e-07
4.8787e-05
6.67051e-07
5.05996e-05
6.17152e-07
5.24788e-05
5.65038e-07
5.44275e-05
5.10751e-07
5.64484e-05
4.54831e-07
5.8544e-05
3.9743e-07
6.07173e-05
3.37921e-07
6.29717e-05
2.76811e-07
6.53099e-05
2.1342e-07
6.77352e-05
7.02517e-05
7.08829e-07
1.99484e-05
9.52487e-07
3.34591e-05
9.65204e-07
3.74065e-05
9.22093e-07
3.91983e-05
8.72347e-07
4.06956e-05
8.23218e-07
4.2209e-05
7.75599e-07
4.37754e-05
7.29769e-07
4.53994e-05
6.84734e-07
4.70841e-05
6.40245e-07
4.88315e-05
5.96208e-07
5.06436e-05
5.51573e-07
5.25234e-05
5.05851e-07
5.44732e-05
4.58842e-07
5.64954e-05
4.10071e-07
5.85928e-05
3.59278e-07
6.07681e-05
3.06773e-07
6.30242e-05
2.52065e-07
6.53646e-05
1.95586e-07
6.77917e-05
7.03105e-05
7.34938e-07
1.92134e-05
1.01396e-06
3.31801e-05
1.05797e-06
3.73625e-05
1.04257e-06
3.92137e-05
1.01303e-06
4.07251e-05
9.77429e-07
4.22446e-05
9.36897e-07
4.38159e-05
8.91251e-07
4.5445e-05
8.41549e-07
4.71338e-05
7.88858e-07
4.88842e-05
7.3339e-07
5.06991e-05
6.75974e-07
5.25808e-05
6.17211e-07
5.4532e-05
5.57192e-07
5.65554e-05
4.96007e-07
5.8654e-05
4.33338e-07
6.08308e-05
3.68865e-07
6.30887e-05
3.03066e-07
6.54304e-05
2.35025e-07
6.78597e-05
7.03801e-05
7.31032e-07
1.84824e-05
1.00034e-06
3.29108e-05
1.01386e-06
3.7349e-05
9.63521e-07
3.92641e-05
9.07961e-07
4.07807e-05
8.55747e-07
4.22968e-05
8.06584e-07
4.38651e-05
7.60293e-07
4.54913e-05
7.15721e-07
4.71784e-05
6.71297e-07
4.89286e-05
6.26377e-07
5.0744e-05
5.8049e-07
5.26267e-05
5.33159e-07
5.45793e-05
4.84275e-07
5.66043e-05
4.33587e-07
5.87047e-05
3.81356e-07
6.0883e-05
3.27619e-07
6.31424e-05
2.71108e-07
6.54869e-05
2.12648e-07
6.79182e-05
7.04413e-05
7.69984e-07
1.77124e-05
1.11189e-06
3.25689e-05
1.18117e-06
3.72797e-05
1.16778e-06
3.92775e-05
1.13185e-06
4.08166e-05
1.08633e-06
4.23424e-05
1.03506e-06
4.39164e-05
9.79235e-07
4.55472e-05
9.19911e-07
4.72377e-05
8.58491e-07
4.899e-05
7.95776e-07
5.08067e-05
7.31832e-07
5.26907e-05
6.66813e-07
5.46443e-05
6.00685e-07
5.66705e-05
5.33625e-07
5.87717e-05
4.6545e-07
6.09512e-05
3.95922e-07
6.32119e-05
3.26177e-07
6.55567e-05
2.54731e-07
6.79897e-05
7.05142e-05
7.1593e-07
1.69965e-05
9.89921e-07
3.22949e-05
1.00594e-06
3.72637e-05
9.56017e-07
3.93274e-05
9.01946e-07
4.08707e-05
8.53238e-07
4.23911e-05
8.08409e-07
4.39612e-05
7.65339e-07
4.55902e-05
7.22946e-07
4.72801e-05
6.80171e-07
4.90328e-05
6.36052e-07
5.08508e-05
5.90501e-07
5.27362e-05
5.43396e-07
5.46914e-05
4.94595e-07
5.67193e-05
4.44019e-07
5.88223e-05
3.91744e-07
6.10034e-05
3.37859e-07
6.32658e-05
2.81313e-07
6.56132e-05
2.23641e-07
6.80473e-05
7.05743e-05
7.86284e-07
1.62102e-05
1.18696e-06
3.18942e-05
1.2733e-06
3.71773e-05
1.25257e-06
3.93481e-05
1.20341e-06
4.09198e-05
1.14459e-06
4.24499e-05
1.08072e-06
4.40251e-05
1.01499e-06
4.5656e-05
9.48603e-07
4.73465e-05
8.82003e-07
4.90994e-05
8.15726e-07
5.09171e-05
7.4973e-07
5.28022e-05
6.83686e-07
5.47575e-05
6.17531e-07
5.67854e-05
5.50942e-07
5.88889e-05
4.83232e-07
6.10712e-05
4.13957e-07
6.33351e-05
3.43963e-07
6.56832e-05
2.71042e-07
6.81202e-05
7.06496e-05
6.34001e-07
1.55762e-05
9.0604e-07
3.16222e-05
9.39458e-07
3.71439e-05
9.06395e-07
3.93812e-05
8.64754e-07
4.09615e-05
8.25488e-07
4.24892e-05
7.87844e-07
4.40627e-05
7.50033e-07
4.56938e-05
7.10572e-07
4.73859e-05
6.69564e-07
4.91404e-05
6.26908e-07
5.09598e-05
5.82575e-07
5.28465e-05
5.368e-07
5.48033e-05
4.8962e-07
5.68326e-05
4.40989e-07
5.89375e-05
3.91457e-07
6.11207e-05
3.40401e-07
6.33861e-05
2.86986e-07
6.57366e-05
2.33244e-07
6.8174e-05
7.07054e-05
7.52569e-07
1.48236e-05
1.14178e-06
3.1233e-05
1.21299e-06
3.70727e-05
1.17279e-06
3.94214e-05
1.10995e-06
4.10243e-05
1.044e-06
4.25551e-05
9.79309e-07
4.41274e-05
9.16029e-07
4.57571e-05
8.54709e-07
4.74472e-05
7.94793e-07
4.92003e-05
7.3572e-07
5.10189e-05
6.77136e-07
5.29051e-05
6.18799e-07
5.48616e-05
5.60271e-07
5.68911e-05
5.01288e-07
5.89965e-05
4.41388e-07
6.11806e-05
3.81522e-07
6.3446e-05
3.20589e-07
6.57976e-05
2.5799e-07
6.82366e-05
7.07673e-05
4.54686e-07
7.31405e-07
7.97371e-07
7.87227e-07
7.59115e-07
7.27299e-07
6.93998e-07
6.59917e-07
6.24976e-07
5.89032e-07
5.52324e-07
5.15051e-07
4.77064e-07
4.38298e-07
3.98811e-07
3.5848e-07
3.16835e-07
2.74178e-07
2.30185e-07
2.15677e-09
3.45861e-05
2.0467e-09
3.58701e-05
9.21184e-10
3.72039e-05
4.23655e-10
3.85856e-05
2.99806e-10
4.00188e-05
3.40207e-10
4.15055e-05
4.96165e-10
4.30476e-05
7.16417e-10
4.46469e-05
9.2657e-10
4.63058e-05
1.11096e-09
4.80264e-05
1.28007e-09
4.98108e-05
1.40142e-09
5.16616e-05
1.47006e-09
5.35811e-05
1.46413e-09
5.5572e-05
1.39899e-09
5.76368e-05
1.32615e-09
5.97783e-05
1.24654e-09
6.19994e-05
1.11922e-09
6.43031e-05
8.61365e-10
6.66924e-05
6.91705e-05
-8.73191e-09
3.45878e-05
-4.26835e-09
3.58657e-05
2.69222e-10
3.71994e-05
1.5261e-09
3.85843e-05
1.8037e-09
4.00185e-05
2.1637e-09
4.15052e-05
2.70431e-09
4.3047e-05
3.27236e-09
4.46464e-05
3.85271e-09
4.63052e-05
4.35095e-09
4.80259e-05
4.68714e-09
4.98105e-05
4.86412e-09
5.16614e-05
4.89689e-09
5.35811e-05
4.77725e-09
5.55721e-05
4.47687e-09
5.76371e-05
3.94529e-09
5.97789e-05
3.21417e-09
6.20002e-05
2.41718e-09
6.43039e-05
1.52615e-09
6.66933e-05
6.91714e-05
6.58922e-10
3.45878e-05
1.71408e-11
3.58663e-05
-6.2348e-11
3.71995e-05
8.87619e-10
3.85834e-05
1.67682e-09
4.00177e-05
2.50877e-09
4.15044e-05
3.48453e-09
4.30461e-05
4.50102e-09
4.46454e-05
5.43652e-09
4.63043e-05
6.25567e-09
4.8025e-05
6.91565e-09
4.98098e-05
7.34678e-09
5.1661e-05
7.49126e-09
5.35809e-05
7.34878e-09
5.55723e-05
6.98451e-09
5.76375e-05
6.41738e-09
5.97794e-05
5.62423e-09
6.20009e-05
4.56432e-09
6.43049e-05
3.09565e-09
6.66947e-05
6.9173e-05
-5.47978e-09
3.45874e-05
-3.59534e-09
3.58644e-05
-4.11132e-10
3.71963e-05
1.58071e-09
3.85814e-05
3.28459e-09
4.0016e-05
4.78436e-09
4.15029e-05
6.23828e-09
4.30446e-05
7.58392e-09
4.4644e-05
8.77785e-09
4.63031e-05
9.69966e-09
4.80241e-05
1.02862e-08
4.98092e-05
1.05887e-08
5.16607e-05
1.05924e-08
5.35809e-05
1.02479e-08
5.55726e-05
9.52582e-09
5.76382e-05
8.44344e-09
5.97805e-05
7.11079e-09
6.20023e-05
5.54936e-09
6.43065e-05
3.86632e-09
6.66964e-05
6.91749e-05
2.96482e-09
3.45863e-05
1.5726e-09
3.58658e-05
6.08126e-11
3.71978e-05
1.39111e-09
3.858e-05
3.65461e-09
4.00138e-05
5.83094e-09
4.15007e-05
7.75405e-09
4.30427e-05
9.52019e-09
4.46423e-05
1.10224e-08
4.63016e-05
1.22159e-08
4.80229e-05
1.30506e-08
4.98084e-05
1.34444e-08
5.16603e-05
1.33724e-08
5.3581e-05
1.29321e-08
5.55731e-05
1.2119e-08
5.7639e-05
1.0909e-08
5.97817e-05
9.26692e-09
6.20039e-05
7.16535e-09
6.43086e-05
4.88148e-09
6.66987e-05
6.91773e-05
-2.78524e-09
3.45857e-05
-1.51111e-09
3.58646e-05
3.52922e-10
3.71959e-05
2.71553e-09
3.85777e-05
5.72592e-09
4.00108e-05
8.70301e-09
4.14977e-05
1.1137e-08
4.30402e-05
1.31062e-08
4.46403e-05
1.46227e-08
4.63001e-05
1.57278e-08
4.80218e-05
1.63949e-08
4.98077e-05
1.66054e-08
5.16601e-05
1.63551e-08
5.35813e-05
1.56074e-08
5.55738e-05
1.43939e-08
5.76403e-05
1.27975e-08
5.97833e-05
1.0846e-08
6.20059e-05
8.55048e-09
6.43109e-05
5.96396e-09
6.67013e-05
6.91801e-05
4.55833e-09
3.45843e-05
3.44338e-09
3.58657e-05
2.29903e-09
3.71971e-05
4.5316e-09
3.85754e-05
7.73259e-09
4.00076e-05
1.10718e-08
4.14944e-05
1.39136e-08
4.30374e-05
1.61701e-08
4.4638e-05
1.78948e-08
4.62984e-05
1.90573e-08
4.80207e-05
1.96514e-08
4.98071e-05
1.97161e-08
5.166e-05
1.92587e-08
5.35817e-05
1.83244e-08
5.55747e-05
1.68949e-08
5.76417e-05
1.49695e-08
5.97853e-05
1.25619e-08
6.20083e-05
9.79345e-09
6.43136e-05
6.80969e-09
6.67043e-05
6.91833e-05
-1.85347e-09
3.45841e-05
5.85268e-10
3.58632e-05
4.17668e-09
3.71935e-05
7.47604e-09
3.85721e-05
1.11804e-08
4.00039e-05
1.47523e-08
4.14908e-05
1.78847e-08
4.30343e-05
2.02642e-08
4.46356e-05
2.19085e-08
4.62967e-05
2.28918e-08
4.80197e-05
2.32919e-08
4.98067e-05
2.30615e-08
5.16602e-05
2.22646e-08
5.35825e-05
2.09518e-08
5.5576e-05
1.91622e-08
5.76435e-05
1.69327e-08
5.97875e-05
1.42966e-08
6.20109e-05
1.12479e-08
6.43167e-05
7.83038e-09
6.67077e-05
6.9187e-05
3.72588e-09
3.45834e-05
5.25271e-09
3.58617e-05
7.70933e-09
3.7191e-05
1.13685e-08
3.85685e-05
1.51413e-08
4.00001e-05
1.86717e-08
4.14873e-05
2.17316e-08
4.30312e-05
2.41057e-08
4.46333e-05
2.57378e-08
4.62951e-05
2.6604e-08
4.80188e-05
2.67343e-08
4.98066e-05
2.62445e-08
5.16607e-05
2.51818e-08
5.35836e-05
2.35577e-08
5.55777e-05
2.14186e-08
5.76456e-05
1.88205e-08
5.97901e-05
1.5793e-08
6.20139e-05
1.24105e-08
6.43201e-05
8.74597e-09
6.67113e-05
6.9191e-05
-1.85996e-09
3.45831e-05
3.01619e-09
3.58568e-05
1.04814e-08
3.71836e-05
1.58332e-08
3.85631e-05
2.0115e-08
3.99958e-05
2.36202e-08
4.14838e-05
2.65073e-08
4.30283e-05
2.87363e-08
4.4631e-05
3.01526e-08
4.62937e-05
3.0705e-08
4.80183e-05
3.05363e-08
4.98068e-05
2.96708e-08
5.16616e-05
2.81857e-08
5.35851e-05
2.61764e-08
5.55797e-05
2.36952e-08
5.76481e-05
2.0752e-08
5.9793e-05
1.73686e-08
6.20173e-05
1.36471e-08
6.43238e-05
9.51941e-09
6.67155e-05
6.91954e-05
3.11318e-09
3.4582e-05
9.07144e-09
3.58509e-05
1.52141e-08
3.71774e-05
2.10986e-08
3.85572e-05
2.54052e-08
3.99915e-05
2.86038e-08
4.14806e-05
3.11184e-08
4.30258e-05
3.29848e-08
4.46292e-05
3.40744e-08
4.62926e-05
3.43804e-08
4.80179e-05
3.38677e-08
4.98073e-05
3.26515e-08
5.16628e-05
3.08431e-08
5.35869e-05
2.84864e-08
5.5582e-05
2.56642e-08
5.76509e-05
2.24436e-08
5.97963e-05
1.88434e-08
6.20209e-05
1.48664e-08
6.43278e-05
1.0512e-08
6.67198e-05
6.92001e-05
-6.46658e-10
3.45802e-05
9.08466e-09
3.58411e-05
1.96747e-08
3.71668e-05
2.68391e-08
3.85501e-05
3.14984e-08
3.99868e-05
3.45834e-08
4.14775e-05
3.67621e-08
4.30236e-05
3.81343e-08
4.46278e-05
3.86924e-08
4.6292e-05
3.84529e-08
4.80182e-05
3.74338e-08
4.98083e-05
3.57622e-08
5.16645e-05
3.35556e-08
5.35891e-05
3.08793e-08
5.55847e-05
2.77477e-08
5.76541e-05
2.41708e-08
5.97998e-05
2.02342e-08
6.20249e-05
1.59257e-08
6.43321e-05
1.11683e-08
6.67246e-05
6.92051e-05
5.09072e-09
3.45769e-05
1.69554e-08
3.58293e-05
2.57341e-08
3.7158e-05
3.26435e-08
3.85432e-05
3.70842e-08
3.99824e-05
3.9933e-08
4.14746e-05
4.17362e-08
4.30218e-05
4.25368e-08
4.4627e-05
4.24584e-08
4.62921e-05
4.16868e-08
4.8019e-05
4.02789e-08
4.98097e-05
3.83603e-08
5.16664e-05
3.59367e-08
5.35915e-05
3.30072e-08
5.55876e-05
2.96005e-08
5.76575e-05
2.57842e-08
5.98036e-05
2.16224e-08
6.2029e-05
1.70879e-08
6.43366e-05
1.21336e-08
6.67295e-05
6.92105e-05
5.56067e-09
3.45706e-05
2.07373e-08
3.58141e-05
3.22702e-08
3.71465e-05
3.84905e-08
3.85369e-05
4.29205e-08
3.9978e-05
4.62767e-08
4.14713e-05
4.77134e-08
4.30204e-05
4.78791e-08
4.46268e-05
4.71164e-08
4.62929e-05
4.56551e-08
4.80204e-05
4.38233e-08
4.98115e-05
4.14983e-08
5.16687e-05
3.86391e-08
5.35944e-05
3.52763e-08
5.5591e-05
3.14879e-08
5.76612e-05
2.7288e-08
5.98078e-05
2.27298e-08
6.20336e-05
1.78853e-08
6.43415e-05
1.2621e-08
6.67348e-05
6.92161e-05
1.67969e-08
3.45593e-05
3.14479e-08
3.57994e-05
3.92127e-08
3.71387e-05
4.41646e-08
3.8532e-05
4.84161e-08
3.99737e-05
5.09321e-08
4.14687e-05
5.1964e-08
4.30194e-05
5.15671e-08
4.46272e-05
5.03878e-08
4.62941e-05
4.8724e-08
4.80221e-05
4.65296e-08
4.98137e-05
4.38364e-08
5.16714e-05
4.06933e-08
5.35975e-05
3.71361e-08
5.55946e-05
3.31475e-08
5.76652e-05
2.87503e-08
5.98122e-05
2.39814e-08
6.20384e-05
1.89123e-08
6.43465e-05
1.34779e-08
6.67402e-05
6.9222e-05
2.27809e-08
3.45432e-05
3.93093e-08
3.57829e-05
4.65857e-08
3.71315e-05
5.18219e-08
3.85268e-05
5.52839e-08
3.99703e-05
5.69199e-08
4.14671e-05
5.71591e-08
4.30191e-05
5.63864e-08
4.4628e-05
5.48104e-08
4.62956e-05
5.25913e-08
4.80243e-05
4.98432e-08
4.98165e-05
4.66827e-08
5.16746e-05
4.30872e-08
5.36011e-05
3.90653e-08
5.55986e-05
3.46919e-08
5.76696e-05
2.99771e-08
5.9817e-05
2.48831e-08
6.20434e-05
1.9531e-08
6.43519e-05
1.38705e-08
6.67459e-05
6.92282e-05
3.95751e-08
3.45201e-05
5.16161e-08
3.57709e-05
5.50352e-08
3.7128e-05
5.87697e-08
3.8523e-05
6.0868e-08
3.99682e-05
6.15039e-08
4.14665e-05
6.10435e-08
4.30196e-05
5.97923e-08
4.46293e-05
5.78043e-08
4.62976e-05
5.5226e-08
4.80269e-05
5.217e-08
4.98195e-05
4.86841e-08
5.16781e-05
4.48273e-08
5.3605e-05
4.06462e-08
5.56028e-05
3.61107e-08
5.76741e-05
3.12178e-08
5.98219e-05
2.59694e-08
6.20487e-05
2.04169e-08
6.43574e-05
1.46346e-08
6.67517e-05
6.92345e-05
5.2175e-08
3.44902e-05
5.94849e-08
3.57636e-05
6.50139e-08
3.71225e-05
6.73831e-08
3.85207e-05
6.80412e-08
3.99675e-05
6.75893e-08
4.14669e-05
6.63165e-08
4.30209e-05
6.43282e-08
4.46312e-05
6.17671e-08
4.63002e-05
5.86677e-08
4.803e-05
5.50933e-08
4.98231e-05
5.11431e-08
5.1682e-05
4.68555e-08
5.36092e-05
4.2228e-08
5.56074e-05
3.73137e-08
5.76791e-05
3.21435e-08
5.9827e-05
2.66584e-08
6.20542e-05
2.08317e-08
6.43633e-05
1.48905e-08
6.67576e-05
6.9241e-05
7.41778e-08
3.4452e-05
7.39131e-08
3.57638e-05
7.47162e-08
3.71217e-05
7.4804e-08
3.85206e-05
7.37915e-08
3.99685e-05
7.21077e-08
4.14686e-05
6.99189e-08
4.3023e-05
6.73317e-08
4.46338e-05
6.42972e-08
4.63032e-05
6.08314e-08
4.80334e-05
5.69962e-08
4.98269e-05
5.28073e-08
5.16862e-05
4.83065e-08
5.36137e-05
4.35487e-08
5.56122e-05
3.85064e-08
5.76841e-05
3.31633e-08
5.98324e-05
2.75627e-08
6.20598e-05
2.1557e-08
6.43693e-05
1.5529e-08
6.67636e-05
6.92477e-05
9.11656e-08
8.78163e-08
8.64732e-08
8.448e-08
8.18548e-08
7.88487e-08
7.56112e-08
7.20918e-08
6.83172e-08
6.42584e-08
5.98726e-08
5.51984e-08
5.02797e-08
4.50964e-08
3.96702e-08
3.40418e-08
2.81716e-08
2.20277e-08
1.54913e-08
)
;

boundaryField
{
    movingWall
    {
        type            calculated;
        value           nonuniform List<scalar> 
60
(
1.30636e-08
1.41746e-08
1.64654e-08
1.76746e-08
2.05473e-08
2.18068e-08
2.53197e-08
2.66471e-08
3.06435e-08
3.22371e-08
3.64779e-08
3.84527e-08
4.29043e-08
4.50257e-08
5.02561e-08
5.15693e-08
5.88755e-08
5.83745e-08
6.82723e-08
6.67493e-08
7.75516e-08
7.73392e-08
8.73807e-08
8.8211e-08
1.0024e-07
9.80991e-08
1.15279e-07
1.09893e-07
1.2978e-07
1.23408e-07
1.47815e-07
1.36796e-07
1.65373e-07
1.51489e-07
1.81776e-07
1.63569e-07
1.95777e-07
1.77373e-07
1.96083e-07
1.84158e-07
3.94118e-10
6.31374e-10
1.51153e-09
1.97161e-09
2.50303e-09
3.11118e-09
3.63026e-09
4.14628e-09
4.7798e-09
5.12371e-09
5.81421e-09
6.08521e-09
6.77852e-09
6.96877e-09
7.5875e-09
7.72987e-09
8.29271e-09
8.37955e-09
8.86483e-09
8.88828e-09
)
;
    }
    leftSide
    {
        type            calculated;
        value           nonuniform List<scalar> 
20
(
-3.4585e-05
-3.587e-05
-3.72028e-05
-3.85851e-05
-4.00187e-05
-4.15056e-05
-4.30477e-05
-4.46472e-05
-4.6306e-05
-4.80265e-05
-4.9811e-05
-5.16617e-05
-5.35812e-05
-5.5572e-05
-5.76368e-05
-5.97783e-05
-6.19993e-05
-6.43029e-05
-6.66921e-05
-6.91701e-05
)
;
    }
    rightSide
    {
        type            calculated;
        value           nonuniform List<scalar> 
20
(
1.43689e-05
3.09563e-05
3.70067e-05
3.94315e-05
4.10524e-05
4.25869e-05
4.41607e-05
4.57911e-05
4.74822e-05
4.92363e-05
5.10556e-05
5.29424e-05
5.48996e-05
5.69299e-05
5.9036e-05
6.12209e-05
6.34877e-05
6.58402e-05
6.82806e-05
7.08134e-05
)
;
    }
    bottomWall
    {
        type            calculated;
        value           uniform 0;
    }