/*--------------------------------*- C++ -*----------------------------------*\
  =========                 |
  \\      /  F ield         | OpenFOAM: The Open Source CFD Toolbox
   \\    /   O peration     | Website:  https://openfoam.org
    \\  /    A nd           | Version:  10
     \\/     M anipulation  |
\*---------------------------------------------------------------------------*/
FoamFile
{
    format      ascii;
    class       volVectorField;
    location    "0.8";
    object      U;
}
// * * * * * * * * * * * * * * * * * * * * * * * * * * * * * * * * * * * * * //

dimensions      [0 1 -1 0 0 0 0];

internalField   nonuniform List<vector> 
1200
(
(0 0.00218587 0.992401)
(0 0.00386949 0.997547)
(0 0.00321747 0.998151)
(0 0.00293986 0.998616)
(0 0.00277968 0.999018)
(0 0.00263849 0.999369)
(0 0.00249772 0.999673)
(0 0.00236109 0.999936)
(0 0.00222576 1.00017)
(0 0.00208599 1.00037)
(0 0.00194269 1.00054)
(0 0.0017959 1.0007)
(0 0.0016432 1.00083)
(0 0.001484 1.00094)
(0 0.00132071 1.00104)
(0 0.00114857 1.00112)
(0 0.000967088 1.00119)
(0 0.000780005 1.00125)
(0 0.000624423 1.00129)
(0 0.000288317 1.00134)
(0 0.00300743 0.984866)
(0 0.00506972 0.997533)
(0 0.00391574 0.998108)
(0 0.0035175 0.998559)
(0 0.00328238 0.998961)
(0 0.00306398 0.999318)
(0 0.00286656 0.99963)
(0 0.00267858 0.999904)
(0 0.00249657 1.00014)
(0 0.00232157 1.00035)
(0 0.00214818 1.00053)
(0 0.00197083 1.00069)
(0 0.00179127 1.00082)
(0 0.00161017 1.00094)
(0 0.00142274 1.00105)
(0 0.00123073 1.00113)
(0 0.00103498 1.00121)
(0 0.000829646 1.00126)
(0 0.000660531 1.00131)
(0 0.000301871 1.00136)
(0 0.00361709 0.977714)
(0 0.00596141 0.998015)
(0 0.00446596 0.998553)
(0 0.00401918 0.998944)
(0 0.00371093 0.999317)
(0 0.00343549 0.999654)
(0 0.00317956 0.999954)
(0 0.00294561 1.00022)
(0 0.00273033 1.00045)
(0 0.00252561 1.00065)
(0 0.00232519 1.00083)
(0 0.00213039 1.00098)
(0 0.00193635 1.00112)
(0 0.00173806 1.00123)
(0 0.00153767 1.00133)
(0 0.00133344 1.00142)
(0 0.00111939 1.00149)
(0 0.000899943 1.00155)
(0 0.000725015 1.00159)
(0 0.000337842 1.00164)
(0 0.0039417 0.970356)
(0 0.00646863 0.998421)
(0 0.00490443 0.99894)
(0 0.00450126 0.999218)
(0 0.00417844 0.999514)
(0 0.00385015 0.9998)
(0 0.00354838 1.00006)
(0 0.00327051 1.00031)
(0 0.00301243 1.00052)
(0 0.00276996 1.00072)
(0 0.00254024 1.00089)
(0 0.00231335 1.00104)
(0 0.00208847 1.00117)
(0 0.00186729 1.00128)
(0 0.001645 1.00138)
(0 0.00141772 1.00146)
(0 0.00118873 1.00153)
(0 0.000951147 1.00159)
(0 0.000759439 1.00164)
(0 0.000349831 1.00169)
(0 0.00404784 0.962793)
(0 0.00661939 0.999083)
(0 0.00508549 0.99973)
(0 0.00481123 0.99992)
(0 0.00448701 1.00014)
(0 0.00414451 1.00036)
(0 0.0038164 1.00057)
(0 0.00351273 1.00077)
(0 0.00323184 1.00096)
(0 0.00297058 1.00113)
(0 0.00271739 1.00128)
(0 0.00247522 1.00142)
(0 0.00223986 1.00154)
(0 0.00200324 1.00164)
(0 0.00176452 1.00173)
(0 0.00152702 1.00181)
(0 0.00128094 1.00187)
(0 0.00102768 1.00193)
(0 0.000833099 1.00197)
(0 0.000391844 1.00202)
(0 0.00404418 0.954604)
(0 0.00658595 0.999416)
(0 0.00516822 1.0003)
(0 0.00504737 1.00038)
(0 0.0047745 1.00051)
(0 0.00443208 1.00065)
(0 0.00409653 1.00081)
(0 0.00377643 1.00097)
(0 0.00347628 1.00112)
(0 0.00318722 1.00127)
(0 0.00291287 1.0014)
(0 0.00264488 1.00152)
(0 0.00238019 1.00163)
(0 0.00212158 1.00173)
(0 0.00186785 1.00182)
(0 0.00160793 1.00189)
(0 0.00134476 1.00195)
(0 0.00107588 1.002)
(0 0.000863663 1.00204)
(0 0.000401175 1.00209)
(0 0.00401264 0.946068)
(0 0.00649527 0.999775)
(0 0.00512088 1.00109)
(0 0.00513677 1.00117)
(0 0.0048914 1.00125)
(0 0.00457678 1.00134)
(0 0.00425499 1.00144)
(0 0.0039437 1.00155)
(0 0.0036402 1.00166)
(0 0.00335255 1.00178)
(0 0.00306997 1.00188)
(0 0.00279425 1.00198)
(0 0.00252494 1.00207)
(0 0.00225669 1.00216)
(0 0.00198427 1.00223)
(0 0.0017155 1.00229)
(0 0.00144262 1.00234)
(0 0.00115721 1.00239)
(0 0.000943947 1.00242)
(0 0.000448826 1.00247)
(0 0.00400079 0.936867)
(0 0.00642888 0.999722)
(0 0.00511244 1.00156)
(0 0.00521827 1.0016)
(0 0.00501534 1.00162)
(0 0.00471959 1.00166)
(0 0.00441632 1.00172)
(0 0.00411068 1.00179)
(0 0.00381429 1.00187)
(0 0.00351446 1.00196)
(0 0.00321968 1.00205)
(0 0.00292994 1.00213)
(0 0.00264161 1.00221)
(0 0.00235496 1.00228)
(0 0.0020747 1.00235)
(0 0.00178861 1.0024)
(0 0.00149335 1.00245)
(0 0.00119613 1.00249)
(0 0.000970211 1.00253)
(0 0.000455612 1.00257)
(0 0.00401515 0.927415)
(0 0.00643452 0.999644)
(0 0.00509586 1.00215)
(0 0.00524155 1.00227)
(0 0.0050308 1.00231)
(0 0.00475665 1.00234)
(0 0.00447505 1.00237)
(0 0.00419818 1.00242)
(0 0.00391214 1.00247)
(0 0.0036296 1.00253)
(0 0.00334556 1.00259)
(0 0.00305691 1.00265)
(0 0.00276733 1.00271)
(0 0.00247955 1.00276)
(0 0.00218522 1.00281)
(0 0.00188911 1.00286)
(0 0.00159414 1.0029)
(0 0.00127954 1.00293)
(0 0.00104912 1.00296)
(0 0.000505007 1.003)
(0 0.00404655 0.917351)
(0 0.00647509 0.999229)
(0 0.00517482 1.00249)
(0 0.005335 1.00259)
(0 0.00511883 1.0026)
(0 0.00484017 1.00261)
(0 0.00457097 1.00263)
(0 0.00429506 1.00266)
(0 0.00402184 1.0027)
(0 0.00373675 1.00274)
(0 0.00344277 1.00278)
(0 0.00314921 1.00283)
(0 0.00285436 1.00288)
(0 0.00255293 1.00292)
(0 0.00225207 1.00296)
(0 0.00195031 1.003)
(0 0.00163119 1.00303)
(0 0.00130903 1.00307)
(0 0.00107666 1.00309)
(0 0.000512386 1.00313)
(0 0.00407704 0.907136)
(0 0.00654639 0.998798)
(0 0.0052388 1.00291)
(0 0.00539232 1.00313)
(0 0.00513664 1.0032)
(0 0.0048601 1.00324)
(0 0.00459699 1.00326)
(0 0.00434538 1.00329)
(0 0.00408356 1.00331)
(0 0.00381444 1.00334)
(0 0.00354159 1.00337)
(0 0.00325544 1.0034)
(0 0.00295857 1.00343)
(0 0.00266053 1.00346)
(0 0.00235747 1.00349)
(0 0.00204057 1.00351)
(0 0.00172655 1.00354)
(0 0.00138934 1.00357)
(0 0.00114623 1.00359)
(0 0.000558984 1.00362)
(0 0.00409798 0.896304)
(0 0.00661378 0.998126)
(0 0.005381 1.00323)
(0 0.00554373 1.0034)
(0 0.00526505 1.00341)
(0 0.00496498 1.00344)
(0 0.00469853 1.00347)
(0 0.00443175 1.00349)
(0 0.00416436 1.00352)
(0 0.00389171 1.00355)
(0 0.00360387 1.00357)
(0 0.00331206 1.0036)
(0 0.00301801 1.00362)
(0 0.00271389 1.00364)
(0 0.0023977 1.00366)
(0 0.00208652 1.00369)
(0 0.00175477 1.00371)
(0 0.0014098 1.00373)
(0 0.00117541 1.00374)
(0 0.000568315 1.00377)
(0 0.00410533 0.885361)
(0 0.00665399 0.99739)
(0 0.00544467 1.00357)
(0 0.00561005 1.00392)
(0 0.00530521 1.004)
(0 0.00500878 1.00406)
(0 0.00473971 1.0041)
(0 0.00448514 1.00413)
(0 0.00423109 1.00416)
(0 0.00396271 1.00418)
(0 0.00369179 1.0042)
(0 0.00340834 1.00421)
(0 0.00311097 1.00423)
(0 0.00280457 1.00424)
(0 0.00249984 1.00426)
(0 0.00217262 1.00426)
(0 0.00183936 1.00428)
(0 0.00148493 1.00429)
(0 0.00123714 1.0043)
(0 0.000611471 1.00433)
(0 0.00409832 0.873752)
(0 0.00670649 0.996492)
(0 0.00558813 1.00394)
(0 0.00577425 1.0042)
(0 0.005458 1.0042)
(0 0.00514262 1.00423)
(0 0.00486474 1.00427)
(0 0.00459312 1.0043)
(0 0.00431173 1.00433)
(0 0.00403476 1.00436)
(0 0.00374572 1.00439)
(0 0.00345005 1.0044)
(0 0.00314892 1.00442)
(0 0.0028444 1.00443)
(0 0.00251861 1.00444)
(0 0.00219521 1.00446)
(0 0.00186081 1.00447)
(0 0.00149736 1.00448)
(0 0.00125928 1.00449)
(0 0.000619036 1.00452)
(0 0.00408791 0.862044)
(0 0.00670405 0.995415)
(0 0.0056182 1.00427)
(0 0.00581338 1.00478)
(0 0.00549327 1.00488)
(0 0.00519361 1.00493)
(0 0.0049247 1.00497)
(0 0.00465849 1.005)
(0 0.00440036 1.00503)
(0 0.0041231 1.00505)
(0 0.00384004 1.00507)
(0 0.00354913 1.00508)
(0 0.00325214 1.00509)
(0 0.00293617 1.00509)
(0 0.00262215 1.0051)
(0 0.00229322 1.0051)
(0 0.00194084 1.0051)
(0 0.00156779 1.00511)
(0 0.00132666 1.0051)
(0 0.000666283 1.00512)
(0 0.00406253 0.849611)
(0 0.00675027 0.994263)
(0 0.00574391 1.00467)
(0 0.00595134 1.00508)
(0 0.00562612 1.00507)
(0 0.00531986 1.00509)
(0 0.00504034 1.00512)
(0 0.00476883 1.00516)
(0 0.00447617 1.00519)
(0 0.00418655 1.00522)
(0 0.00389008 1.00524)
(0 0.00358688 1.00526)
(0 0.00326892 1.00527)
(0 0.00295559 1.00529)
(0 0.0026294 1.0053)
(0 0.00228766 1.0053)
(0 0.00194771 1.00531)
(0 0.00157113 1.00532)
(0 0.00132384 1.00533)
(0 0.000659815 1.00535)
(0 0.00404959 0.83708)
(0 0.00674005 0.992766)
(0 0.00577276 1.00499)
(0 0.00598205 1.00576)
(0 0.00565799 1.00587)
(0 0.00536946 1.0059)
(0 0.00511545 1.00593)
(0 0.00484715 1.00595)
(0 0.00458207 1.00597)
(0 0.00429935 1.00599)
(0 0.00400492 1.006)
(0 0.00369972 1.00601)
(0 0.0033978 1.00601)
(0 0.00307705 1.00601)
(0 0.00274046 1.00601)
(0 0.00240907 1.00601)
(0 0.00204782 1.006)
(0 0.00164994 1.006)
(0 0.00141937 1.00599)
(0 0.000726394 1.006)
(0 0.0040137 0.823767)
(0 0.0067775 0.991306)
(0 0.0058736 1.00538)
(0 0.00607825 1.00607)
(0 0.00574671 1.00605)
(0 0.00545791 1.00606)
(0 0.00518523 1.00608)
(0 0.00491825 1.00612)
(0 0.00462943 1.00614)
(0 0.00433105 1.00616)
(0 0.00402507 1.00618)
(0 0.00371731 1.0062)
(0 0.00338987 1.00621)
(0 0.0030567 1.00622)
(0 0.00273305 1.00624)
(0 0.00237924 1.00624)
(0 0.00201917 1.00625)
(0 0.00163216 1.00626)
(0 0.00137973 1.00626)
(0 0.000695184 1.00628)
(0 0.00400124 0.810363)
(0 0.00679063 0.98932)
(0 0.00594039 1.00568)
(0 0.006142 1.00682)
(0 0.00580832 1.00694)
(0 0.00552974 1.00697)
(0 0.00528779 1.00699)
(0 0.00502753 1.007)
(0 0.00475531 1.00701)
(0 0.00447139 1.00701)
(0 0.00417722 1.00701)
(0 0.00386256 1.00701)
(0 0.00354391 1.00701)
(0 0.00322486 1.00701)
(0 0.00287069 1.007)
(0 0.00252112 1.00699)
(0 0.00216191 1.00699)
(0 0.00173895 1.00698)
(0 0.00150602 1.00698)
(0 0.000784224 1.00699)
(0 0.00396006 0.796104)
(0 0.00680355 0.987465)
(0 0.00600845 1.00605)
(0 0.00619377 1.00715)
(0 0.00584897 1.00716)
(0 0.00556792 1.00716)
(0 0.00530216 1.00718)
(0 0.00503118 1.0072)
(0 0.00474881 1.00723)
(0 0.00445128 1.00724)
(0 0.00413653 1.00725)
(0 0.00382249 1.00726)
(0 0.00350434 1.00728)
(0 0.00315702 1.00727)
(0 0.00282202 1.00728)
(0 0.00247549 1.00729)
(0 0.00209452 1.00728)
(0 0.00168972 1.00729)
(0 0.00144735 1.00729)
(0 0.000739912 1.0073)
(0 0.00393904 0.781771)
(0 0.00684726 0.984944)
(0 0.00612159 1.00627)
(0 0.00630745 1.00792)
(0 0.00596249 1.00807)
(0 0.00569089 1.0081)
(0 0.00544726 1.00811)
(0 0.00519539 1.00812)
(0 0.00492081 1.00812)
(0 0.00462846 1.00812)
(0 0.00433419 1.00812)
(0 0.00402281 1.00811)
(0 0.00368283 1.0081)
(0 0.00335363 1.00809)
(0 0.00300548 1.00808)
(0 0.00262823 1.00807)
(0 0.00226215 1.00807)
(0 0.00182679 1.00806)
(0 0.0015775 1.00806)
(0 0.000829465 1.00808)
(0 0.00389977 0.766505)
(0 0.00683937 0.982567)
(0 0.00616675 1.00662)
(0 0.00632837 1.00832)
(0 0.00596731 1.00837)
(0 0.00567881 1.00837)
(0 0.00541706 1.00839)
(0 0.00513696 1.00841)
(0 0.00484417 1.00842)
(0 0.00455125 1.00843)
(0 0.00423761 1.00844)
(0 0.00391094 1.00844)
(0 0.0035979 1.00844)
(0 0.00326215 1.00844)
(0 0.00290294 1.00843)
(0 0.0025625 1.00843)
(0 0.00218652 1.00842)
(0 0.00175518 1.00842)
(0 0.00152669 1.00841)
(0 0.000798092 1.00842)
(0 0.00386322 0.751194)
(0 0.00688903 0.979492)
(0 0.00629961 1.00673)
(0 0.00647326 1.00907)
(0 0.00611909 1.00928)
(0 0.0058566 1.00932)
(0 0.00560774 1.00933)
(0 0.00534968 1.00934)
(0 0.00508198 1.00934)
(0 0.00477966 1.00934)
(0 0.00447002 1.00933)
(0 0.00416041 1.00933)
(0 0.00382102 1.00932)
(0 0.003461 1.0093)
(0 0.00311774 1.00929)
(0 0.00273717 1.00928)
(0 0.00234213 1.00926)
(0 0.00189644 1.00927)
(0 0.00164408 1.00926)
(0 0.00087003 1.00927)
(0 0.0038243 0.734882)
(0 0.0068902 0.976452)
(0 0.00635147 1.00701)
(0 0.00648596 1.00954)
(0 0.00611267 1.00966)
(0 0.00580797 1.00966)
(0 0.00553509 1.00968)
(0 0.00525779 1.00969)
(0 0.00494605 1.0097)
(0 0.00464507 1.0097)
(0 0.00433918 1.00971)
(0 0.00401225 1.00971)
(0 0.00367423 1.0097)
(0 0.00335585 1.0097)
(0 0.00299886 1.00968)
(0 0.00263215 1.00967)
(0 0.00227214 1.00967)
(0 0.00182884 1.00966)
(0 0.00159229 1.00966)
(0 0.000847661 1.00967)
(0 0.00377822 0.718538)
(0 0.00690717 0.972782)
(0 0.00646303 1.00708)
(0 0.00663702 1.01037)
(0 0.00627828 1.01063)
(0 0.00602114 1.01068)
(0 0.00578016 1.01069)
(0 0.00549721 1.0107)
(0 0.0052278 1.0107)
(0 0.0049305 1.0107)
(0 0.00461114 1.01069)
(0 0.00427689 1.01068)
(0 0.00395561 1.01067)
(0 0.00358511 1.01065)
(0 0.00320591 1.01063)
(0 0.00284535 1.01062)
(0 0.00243868 1.01059)
(0 0.00196052 1.01058)
(0 0.00172678 1.01057)
(0 0.000929119 1.01057)
(0 0.00372814 0.70115)
(0 0.00693157 0.968959)
(0 0.00653834 1.00712)
(0 0.00663877 1.01076)
(0 0.00626312 1.011)
(0 0.00596062 1.01101)
(0 0.00565846 1.01103)
(0 0.00538193 1.01105)
(0 0.00506184 1.01106)
(0 0.00473933 1.01107)
(0 0.00441378 1.01107)
(0 0.0041087 1.01107)
(0 0.00375679 1.01106)
(0 0.00340863 1.01105)
(0 0.0030817 1.01106)
(0 0.00269706 1.01104)
(0 0.00231697 1.01103)
(0 0.00188139 1.01104)
(0 0.00163636 1.01103)
(0 0.000877699 1.01104)
(0 0.00368142 0.683699)
(0 0.00693721 0.964574)
(0 0.00663166 1.00722)
(0 0.00681033 1.01178)
(0 0.00645862 1.01216)
(0 0.00619229 1.0122)
(0 0.00597646 1.01221)
(0 0.00569003 1.0122)
(0 0.005404 1.0122)
(0 0.00509301 1.01219)
(0 0.00478681 1.01218)
(0 0.00442497 1.01216)
(0 0.00407253 1.01214)
(0 0.0037354 1.01212)
(0 0.00333206 1.01208)
(0 0.00294655 1.01205)
(0 0.0025595 1.01204)
(0 0.00205035 1.01201)
(0 0.00181363 1.012)
(0 0.000995028 1.012)
(0 0.00362414 0.665248)
(0 0.0069239 0.959936)
(0 0.00670106 1.00697)
(0 0.00677165 1.01207)
(0 0.00637518 1.01245)
(0 0.00608531 1.01249)
(0 0.00575868 1.01251)
(0 0.00546225 1.01253)
(0 0.00513512 1.01255)
(0 0.00482796 1.01257)
(0 0.00447421 1.01256)
(0 0.00414126 1.01257)
(0 0.00382367 1.01259)
(0 0.00344177 1.01257)
(0 0.00308879 1.01257)
(0 0.00274172 1.01257)
(0 0.00235087 1.01255)
(0 0.00190079 1.01255)
(0 0.00167941 1.01254)
(0 0.000915275 1.01254)
(0 0.00355834 0.646612)
(0 0.00699949 0.954585)
(0 0.00683066 1.00692)
(0 0.00700467 1.01321)
(0 0.0066869 1.01378)
(0 0.00641424 1.01382)
(0 0.00620461 1.01381)
(0 0.00592219 1.0138)
(0 0.00564789 1.01379)
(0 0.00530388 1.01376)
(0 0.00497693 1.01373)
(0 0.00465551 1.01372)
(0 0.0042551 1.01368)
(0 0.00387925 1.01365)
(0 0.00350357 1.01364)
(0 0.00307051 1.0136)
(0 0.00265009 1.01358)
(0 0.0021389 1.01357)
(0 0.00188747 1.01355)
(0 0.00104309 1.01355)
(0 0.00350803 0.627212)
(0 0.00687588 0.949268)
(0 0.00682456 1.00661)
(0 0.00687676 1.01359)
(0 0.00643459 1.01416)
(0 0.00612691 1.01421)
(0 0.00578468 1.01423)
(0 0.00549042 1.01425)
(0 0.00513223 1.01425)
(0 0.00481894 1.01426)
(0 0.00451936 1.01427)
(0 0.00414536 1.01425)
(0 0.00381949 1.01425)
(0 0.00350349 1.01424)
(0 0.00312263 1.01422)
(0 0.00276417 1.01421)
(0 0.00241172 1.0142)
(0 0.00193625 1.01419)
(0 0.00171537 1.01418)
(0 0.000957427 1.01419)
(0 0.00340428 0.607315)
(0 0.00700967 0.942556)
(0 0.0070199 1.00606)
(0 0.00720012 1.01464)
(0 0.00691992 1.01552)
(0 0.00665398 1.01558)
(0 0.00644979 1.01557)
(0 0.00613044 1.01554)
(0 0.00584504 1.01552)
(0 0.00554324 1.01549)
(0 0.00514694 1.01545)
(0 0.00480143 1.01542)
(0 0.00444761 1.01539)
(0 0.00401139 1.01535)
(0 0.00360321 1.01532)
(0 0.00320592 1.0153)
(0 0.00276175 1.01526)
(0 0.00222549 1.01524)
(0 0.00198543 1.01522)
(0 0.00110621 1.01521)
(0 0.00337025 0.587138)
(0 0.00684457 0.936759)
(0 0.00691499 1.00583)
(0 0.00692632 1.01517)
(0 0.00644869 1.01603)
(0 0.00612648 1.0161)
(0 0.00574085 1.01611)
(0 0.00543923 1.01613)
(0 0.00512762 1.01614)
(0 0.00474722 1.01612)
(0 0.00445909 1.01612)
(0 0.00416905 1.01611)
(0 0.00380168 1.01607)
(0 0.00347559 1.01605)
(0 0.00315778 1.01603)
(0 0.00277571 1.01599)
(0 0.00241276 1.01596)
(0 0.00196074 1.01595)
(0 0.00174497 1.01592)
(0 0.000987817 1.01592)
(0 0.00321056 0.56569)
(0 0.00697219 0.928238)
(0 0.00721968 1.00469)
(0 0.00743286 1.01625)
(0 0.00719052 1.01752)
(0 0.00689962 1.01759)
(0 0.00669458 1.01757)
(0 0.00640084 1.01753)
(0 0.00600451 1.01747)
(0 0.0056856 1.01744)
(0 0.00532814 1.0174)
(0 0.00488563 1.01734)
(0 0.00449413 1.01729)
(0 0.00410917 1.01726)
(0 0.0036589 1.0172)
(0 0.00323493 1.01715)
(0 0.00282295 1.01712)
(0 0.00226306 1.01709)
(0 0.00202482 1.01706)
(0 0.00115227 1.01706)
(0 0.00321062 0.545426)
(0 0.00666631 0.922099)
(0 0.00680134 1.00427)
(0 0.00676958 1.01666)
(0 0.00623979 1.01798)
(0 0.00593734 1.01811)
(0 0.00559827 1.01812)
(0 0.00522646 1.01811)
(0 0.00497348 1.01812)
(0 0.00468893 1.0181)
(0 0.00433993 1.01806)
(0 0.00405124 1.01804)
(0 0.00376385 1.01802)
(0 0.00341176 1.01797)
(0 0.003077 1.01793)
(0 0.00274964 1.0179)
(0 0.00240248 1.01786)
(0 0.00194757 1.01783)
(0 0.0017593 1.0178)
(0 0.00101846 1.01779)
(0 0.00293647 0.522102)
(0 0.00702944 0.911794)
(0 0.00754702 1.00274)
(0 0.00773225 1.01786)
(0 0.00751603 1.01964)
(0 0.00719598 1.01973)
(0 0.00684973 1.01966)
(0 0.00655961 1.01961)
(0 0.00618357 1.01955)
(0 0.00573898 1.01947)
(0 0.00536041 1.01941)
(0 0.0049787 1.01935)
(0 0.00453014 1.01927)
(0 0.0040965 1.01921)
(0 0.00368513 1.01915)
(0 0.0032471 1.01909)
(0 0.0028064 1.01903)
(0 0.00225949 1.01899)
(0 0.00204265 1.01895)
(0 0.00117896 1.01893)
(0 0.00291905 0.502652)
(0 0.00614685 0.904847)
(0 0.0062954 1.002)
(0 0.00629968 1.01847)
(0 0.00578094 1.02045)
(0 0.00545185 1.02059)
(0 0.00523179 1.02057)
(0 0.00494588 1.02051)
(0 0.00462969 1.02044)
(0 0.00439361 1.02037)
(0 0.00414603 1.0203)
(0 0.00383254 1.02022)
(0 0.00353712 1.02013)
(0 0.00326118 1.02007)
(0 0.00294107 1.01999)
(0 0.00260734 1.01992)
(0 0.00231103 1.01987)
(0 0.00187071 1.01982)
(0 0.00170382 1.01978)
(0 0.00102394 1.01976)
(0 0.00255143 0.478318)
(0 0.00692479 0.894115)
(0 0.00768656 1.00009)
(0 0.00775482 1.01916)
(0 0.00742132 1.02156)
(0 0.00711609 1.02173)
(0 0.00672689 1.02167)
(0 0.00629697 1.02159)
(0 0.00592985 1.02152)
(0 0.00554757 1.02145)
(0 0.00511551 1.02137)
(0 0.0047114 1.02129)
(0 0.00433604 1.02122)
(0 0.00393062 1.02114)
(0 0.00351686 1.02106)
(0 0.00312809 1.02099)
(0 0.00273584 1.02093)
(0 0.00220955 1.02088)
(0 0.00201429 1.02083)
(0 0.00118241 1.02082)
(0 0.00216172 0.459497)
(0 0.00528389 0.884753)
(0 0.00544522 0.998747)
(0 0.00552619 1.02032)
(0 0.00518047 1.02318)
(0 0.00491204 1.02334)
(0 0.0046827 1.0232)
(0 0.00449768 1.02305)
(0 0.00428205 1.0229)
(0 0.00401437 1.02273)
(0 0.00376429 1.02257)
(0 0.00353328 1.02242)
(0 0.00326785 1.02227)
(0 0.00298133 1.02212)
(0 0.00270717 1.02198)
(0 0.00242507 1.02186)
(0 0.00216167 1.02174)
(0 0.00175622 1.02164)
(0 0.0016489 1.02156)
(0 0.00103311 1.0215)
(0 0.00222076 0.439806)
(0 0.00623435 0.877109)
(0 0.0069211 0.997398)
(0 0.00685075 1.02067)
(0 0.00637559 1.02381)
(0 0.00601836 1.02403)
(0 0.00569752 1.02395)
(0 0.00534226 1.02383)
(0 0.00496481 1.0237)
(0 0.00462148 1.02358)
(0 0.00430622 1.02346)
(0 0.00397806 1.02333)
(0 0.00363694 1.02321)
(0 0.00330629 1.02309)
(0 0.00297886 1.02298)
(0 0.00265256 1.02288)
(0 0.0023373 1.02279)
(0 0.00188979 1.02272)
(0 0.00178001 1.02265)
(0 0.00110226 1.02262)
(0 0.000800431 0.415145)
(0 0.00400449 0.862306)
(0 0.00426196 0.993909)
(0 0.00439996 1.02109)
(0 0.00417405 1.02498)
(0 0.00403426 1.0252)
(0 0.00386843 1.025)
(0 0.00367296 1.02477)
(0 0.00347792 1.02454)
(0 0.00329189 1.02433)
(0 0.00309932 1.02413)
(0 0.00289514 1.02393)
(0 0.00268928 1.02375)
(0 0.00248309 1.02358)
(0 0.00226858 1.02342)
(0 0.00204899 1.02328)
(0 0.00186744 1.02315)
(0 0.00152179 1.02305)
(0 0.00149251 1.02296)
(0 0.000999078 1.0229)
(0 4.17602e-05 0.995517)
(0 4.19817e-05 0.999724)
(0 1.01159e-05 1.00007)
(0 8.59632e-06 1.00008)
(0 5.26224e-06 1.00008)
(0 4.53408e-06 1.00008)
(0 5.53741e-06 1.00008)
(0 9.23212e-06 1.00008)
(0 1.16836e-05 1.00008)
(0 1.42315e-05 1.00008)
(0 1.72648e-05 1.00008)
(0 1.85396e-05 1.00008)
(0 2.06233e-05 1.00008)
(0 2.1081e-05 1.00008)
(0 1.99495e-05 1.00008)
(0 1.9363e-05 1.00008)
(0 1.8051e-05 1.00008)
(0 1.68111e-05 1.00008)
(0 1.47156e-05 1.00008)
(0 6.89383e-06 1.00008)
(0 -0.000107234 1.0044)
(0 -0.000126229 1.00023)
(0 -1.13014e-05 0.99993)
(0 2.12886e-05 0.999919)
(0 2.33849e-05 0.999917)
(0 2.85648e-05 0.999917)
(0 3.70728e-05 0.999917)
(0 4.32805e-05 0.999917)
(0 5.17427e-05 0.999918)
(0 6.11289e-05 0.99992)
(0 6.59594e-05 0.99992)
(0 7.03624e-05 0.999923)
(0 7.16463e-05 0.999925)
(0 7.04372e-05 0.999926)
(0 6.86453e-05 0.999928)
(0 6.21506e-05 0.999929)
(0 5.2797e-05 0.999931)
(0 4.10845e-05 0.999933)
(0 2.83918e-05 0.999935)
(0 1.09075e-05 0.999936)
(0 1.11855e-05 0.995673)
(0 4.97288e-06 0.999752)
(0 -5.8567e-06 1.00007)
(0 6.7469e-06 1.00006)
(0 1.75794e-05 1.00005)
(0 3.16862e-05 1.00005)
(0 4.46074e-05 1.00005)
(0 6.03518e-05 1.00005)
(0 7.63197e-05 1.00006)
(0 8.81828e-05 1.00007)
(0 0.000100546 1.00008)
(0 0.000110093 1.00008)
(0 0.000113385 1.00009)
(0 0.000113862 1.00009)
(0 0.000109594 1.0001)
(0 0.000102216 1.0001)
(0 9.31362e-05 1.0001)
(0 7.97343e-05 1.0001)
(0 6.04275e-05 1.0001)
(0 2.50889e-05 1.00011)
(0 -9.35283e-05 1.00409)
(0 -0.000107159 1.00011)
(0 -1.696e-05 0.999874)
(0 1.02855e-05 0.999862)
(0 3.94578e-05 0.999862)
(0 6.22605e-05 0.999866)
(0 8.65018e-05 0.999874)
(0 0.000109524 0.999886)
(0 0.000129498 0.999898)
(0 0.000147335 0.999913)
(0 0.000159309 0.999928)
(0 0.000165401 0.999941)
(0 0.000169126 0.999953)
(0 0.000166784 0.999963)
(0 0.000157819 0.999973)
(0 0.000143423 0.999981)
(0 0.000123814 0.999988)
(0 0.000101792 0.999991)
(0 7.91604e-05 0.999992)
(0 3.34062e-05 0.999994)
(0 3.48481e-05 0.995771)
(0 4.55374e-05 0.999702)
(0 -1.26747e-07 0.999979)
(0 5.19455e-06 0.999973)
(0 4.02991e-05 0.99997)
(0 7.78893e-05 0.999977)
(0 0.000110692 0.999992)
(0 0.000140896 1.00001)
(0 0.000169404 1.00003)
(0 0.000192107 1.00005)
(0 0.000208876 1.00007)
(0 0.000220364 1.00009)
(0 0.000221959 1.00011)
(0 0.000217844 1.00012)
(0 0.000208235 1.00014)
(0 0.000191469 1.00015)
(0 0.000168245 1.00016)
(0 0.000138912 1.00016)
(0 0.000104235 1.00017)
(0 4.36594e-05 1.00018)
(0 -5.74271e-05 1.00375)
(0 -5.47541e-05 0.999938)
(0 -5.96216e-07 0.999752)
(0 1.82352e-05 0.999757)
(0 7.54371e-05 0.999772)
(0 0.000124471 0.999792)
(0 0.000168592 0.999817)
(0 0.000207245 0.999849)
(0 0.000237359 0.99988)
(0 0.000259752 0.999913)
(0 0.000276797 0.999945)
(0 0.00028356 0.999971)
(0 0.000284062 0.999996)
(0 0.000276038 1.00002)
(0 0.00025851 1.00004)
(0 0.000234541 1.00005)
(0 0.000204369 1.00006)
(0 0.000169952 1.00007)
(0 0.000132327 1.00008)
(0 5.59521e-05 1.00009)
(0 5.86875e-05 0.995819)
(0 9.3894e-05 0.999583)
(0 3.79517e-05 0.999814)
(0 4.84081e-05 0.999828)
(0 0.000107663 0.999847)
(0 0.000168091 0.999875)
(0 0.000222052 0.999912)
(0 0.000266723 0.999952)
(0 0.0003025 0.999995)
(0 0.00033031 1.00004)
(0 0.000345165 1.00008)
(0 0.000351973 1.00011)
(0 0.000348888 1.00015)
(0 0.000336342 1.00017)
(0 0.000315825 1.0002)
(0 0.000286368 1.00022)
(0 0.000247973 1.00024)
(0 0.00020327 1.00025)
(0 0.000156199 1.00026)
(0 6.74653e-05 1.00027)
(0 -3.85069e-05 1.00339)
(0 -2.0195e-05 0.999714)
(0 4.89261e-05 0.999568)
(0 9.30902e-05 0.999602)
(0 0.000170613 0.999647)
(0 0.000239651 0.999697)
(0 0.000301859 0.999749)
(0 0.000352823 0.999804)
(0 0.000390797 0.99986)
(0 0.000413486 0.999913)
(0 0.000428405 0.999964)
(0 0.000430592 1.00001)
(0 0.000421343 1.00005)
(0 0.000401952 1.00009)
(0 0.000373166 1.00012)
(0 0.000336283 1.00014)
(0 0.000291915 1.00016)
(0 0.000241727 1.00018)
(0 0.000187436 1.00019)
(0 7.97347e-05 1.00021)
(0 5.83136e-05 0.995816)
(0 0.000111935 0.999413)
(0 0.000106985 0.999602)
(0 0.000165699 0.999638)
(0 0.000249562 0.999693)
(0 0.000323301 0.999757)
(0 0.000388567 0.999827)
(0 0.000441832 0.999896)
(0 0.000478323 0.999964)
(0 0.00050414 1.00003)
(0 0.000513143 1.00009)
(0 0.000510133 1.00015)
(0 0.000496712 1.0002)
(0 0.000471391 1.00024)
(0 0.000435085 1.00028)
(0 0.000389529 1.00031)
(0 0.000336109 1.00034)
(0 0.000275953 1.00036)
(0 0.000215679 1.00037)
(0 9.50194e-05 1.00039)
(0 -4.50705e-05 1.00299)
(0 -6.49397e-06 0.999449)
(0 0.000137268 0.999355)
(0 0.000248402 0.999422)
(0 0.000353473 0.999507)
(0 0.000433464 0.999594)
(0 0.00050128 0.99968)
(0 0.00055243 0.999765)
(0 0.000590051 0.999847)
(0 0.000607761 0.999924)
(0 0.000612342 0.999996)
(0 0.000602967 1.00006)
(0 0.00057979 1.00012)
(0 0.000545652 1.00017)
(0 0.000501793 1.00021)
(0 0.000447564 1.00025)
(0 0.000384144 1.00028)
(0 0.000315435 1.0003)
(0 0.000245265 1.00032)
(0 0.000105573 1.00034)
(0 3.99516e-05 0.99574)
(0 0.000125328 0.999189)
(0 0.000226566 0.999368)
(0 0.000362736 0.999439)
(0 0.000475839 0.999536)
(0 0.000555042 0.999642)
(0 0.000617583 0.999749)
(0 0.000667193 0.999852)
(0 0.000696233 0.999948)
(0 0.000712151 1.00004)
(0 0.000710149 1.00012)
(0 0.000692008 1.0002)
(0 0.00066185 1.00026)
(0 0.000620069 1.00032)
(0 0.000566911 1.00037)
(0 0.000504042 1.00041)
(0 0.000433522 1.00045)
(0 0.000354787 1.00048)
(0 0.000278637 1.0005)
(0 0.000123999 1.00052)
(0 -5.38578e-05 1.00252)
(0 4.3439e-05 0.999137)
(0 0.000307539 0.999129)
(0 0.000494131 0.999244)
(0 0.000624881 0.999369)
(0 0.000705525 0.999496)
(0 0.000766319 0.99962)
(0 0.00080546 0.999737)
(0 0.000830581 0.999848)
(0 0.000834872 0.999949)
(0 0.000822553 1.00004)
(0 0.000796472 1.00012)
(0 0.000755485 1.0002)
(0 0.000701896 1.00026)
(0 0.000638559 1.00031)
(0 0.000565964 1.00036)
(0 0.000483329 1.0004)
(0 0.000395263 1.00043)
(0 0.000309119 1.00046)
(0 0.000134561 1.00049)
(0 4.54182e-05 0.995553)
(0 0.000223743 0.998908)
(0 0.000456117 0.999131)
(0 0.000649667 0.999257)
(0 0.000779869 0.999398)
(0 0.000857191 0.999543)
(0 0.000907097 0.999687)
(0 0.000941117 0.999825)
(0 0.000952436 0.999951)
(0 0.000948175 1.00007)
(0 0.000927915 1.00017)
(0 0.000890926 1.00026)
(0 0.000840976 1.00034)
(0 0.000779827 1.00041)
(0 0.000707607 1.00047)
(0 0.000625175 1.00053)
(0 0.000535987 1.00057)
(0 0.000438464 1.0006)
(0 0.000346033 1.00063)
(0 0.000155127 1.00066)
(0 -4.35985e-06 1.00195)
(0 0.000241022 0.998787)
(0 0.000625111 0.998907)
(0 0.000837816 0.999086)
(0 0.000969726 0.999255)
(0 0.00104065 0.999418)
(0 0.00108691 0.999577)
(0 0.00110542 0.999725)
(0 0.00110657 0.999864)
(0 0.0010879 0.999989)
(0 0.00105158 1.0001)
(0 0.00100302 1.0002)
(0 0.000941494 1.00029)
(0 0.000867305 1.00036)
(0 0.000782351 1.00043)
(0 0.000688946 1.00048)
(0 0.000585519 1.00053)
(0 0.000477029 1.00057)
(0 0.000375461 1.0006)
(0 0.000165337 1.00063)
(0 0.000157244 0.995229)
(0 0.000535697 0.998593)
(0 0.000857029 0.998903)
(0 0.00103923 0.999104)
(0 0.00115046 0.999293)
(0 0.0012125 0.999478)
(0 0.00124309 0.999655)
(0 0.00125329 0.999822)
(0 0.00123946 0.999974)
(0 0.00120779 1.00011)
(0 0.0011621 1.00023)
(0 0.00110155 1.00034)
(0 0.00102916 1.00044)
(0 0.000947244 1.00052)
(0 0.000855407 1.00059)
(0 0.000751822 1.00065)
(0 0.000640804 1.0007)
(0 0.000522285 1.00074)
(0 0.000413269 1.00077)
(0 0.000186438 1.00081)
(0 0.000208619 1.00125)
(0 0.000719853 0.998418)
(0 0.00112996 0.998689)
(0 0.00128723 0.998943)
(0 0.00137997 0.999165)
(0 0.00142464 0.999369)
(0 0.00144521 0.999562)
(0 0.00143552 0.999739)
(0 0.00140571 0.999901)
(0 0.0013584 1.00005)
(0 0.00129454 1.00018)
(0 0.00121953 1.00029)
(0 0.00113391 1.00039)
(0 0.00103722 1.00048)
(0 0.000929926 1.00055)
(0 0.0008153 1.00062)
(0 0.000690915 1.00068)
(0 0.00056052 1.00072)
(0 0.000442814 1.00076)
(0 0.000196978 1.00079)
(0 0.000487634 0.994763)
(0 0.00118854 0.998253)
(0 0.001449 0.998673)
(0 0.00153748 0.998956)
(0 0.0015921 0.999208)
(0 0.00161738 0.99944)
(0 0.00161375 0.999651)
(0 0.00158986 0.999845)
(0 0.00154459 1.00002)
(0 0.00148189 1.00018)
(0 0.0014076 1.00032)
(0 0.00132131 1.00044)
(0 0.00122437 1.00055)
(0 0.0011187 1.00064)
(0 0.00100498 1.00072)
(0 0.000879889 1.00079)
(0 0.000746851 1.00085)
(0 0.000607039 1.00089)
(0 0.000482065 1.00093)
(0 0.000218891 1.00097)
(0 0.00068451 1.00045)
(0 0.001578 0.998027)
(0 0.00181824 0.99845)
(0 0.0018453 0.998787)
(0 0.00186636 0.999076)
(0 0.00185822 0.999332)
(0 0.00183383 0.999563)
(0 0.00178496 0.999768)
(0 0.00171848 0.999953)
(0 0.00163896 1.00012)
(0 0.00154576 1.00027)
(0 0.00144255 1.0004)
(0 0.00133082 1.00051)
(0 0.00120989 1.00061)
(0 0.00107891 1.0007)
(0 0.000941679 1.00077)
(0 0.000796103 1.00083)
(0 0.000643574 1.00088)
(0 0.00051033 1.00092)
(0 0.000229341 1.00096)
(0 0.00111395 0.994174)
(0 0.0022417 0.997884)
(0 0.00221467 0.998409)
(0 0.00215008 0.998783)
(0 0.00211676 0.99911)
(0 0.00207509 0.999399)
(0 0.00201649 0.999652)
(0 0.00194611 0.999875)
(0 0.00186289 1.00007)
(0 0.00176645 1.00025)
(0 0.00166098 1.00041)
(0 0.00154688 1.00055)
(0 0.00142399 1.00067)
(0 0.00129315 1.00077)
(0 0.00115581 1.00086)
(0 0.00100813 1.00094)
(0 0.000851852 1.001)
(0 0.000689577 1.00105)
(0 0.000549618 1.00109)
(0 0.00025137 1.00113)
(0 0.00147687 0.999526)
(0 0.00283964 0.997594)
(0 0.00266396 0.998163)
(0 0.00251503 0.998591)
(0 0.00243491 0.998956)
(0 0.00234583 0.999274)
(0 0.00225514 0.999552)
(0 0.00215386 0.999795)
(0 0.00204386 1.00001)
(0 0.00192782 1.0002)
(0 0.00180285 1.00036)
(0 0.00166963 1.00051)
(0 0.00153002 1.00064)
(0 0.00138386 1.00075)
(0 0.00122903 1.00084)
(0 0.00106833 1.00092)
(0 0.000900575 1.00099)
(0 0.000724946 1.00105)
(0 0.00057617 1.00109)
(0 0.000261313 1.00113)
)
;

boundaryField
{
    movingWall
    {
        type            zeroGradient;
    }
    leftSide
    {
        type            fixedValue;
        value           uniform (0 0 1);
    }
    rightSide
    {
        type            zeroGradient;
    }
    bottomWall
    {
        type            noSlip;
    }
    bottomWall2
    {
        type            zeroGradient;
    }
    frontAndBack
    {
        type            empty;
    }
}


// ************************************************************************* //
