/*--------------------------------*- C++ -*----------------------------------*\
  =========                 |
  \\      /  F ield         | OpenFOAM: The Open Source CFD Toolbox
   \\    /   O peration     | Website:  https://openfoam.org
    \\  /    A nd           | Version:  10
     \\/     M anipulation  |
\*---------------------------------------------------------------------------*/
FoamFile
{
    format      ascii;
    class       volScalarField;
    location    "0.5";
    object      p;
}
// * * * * * * * * * * * * * * * * * * * * * * * * * * * * * * * * * * * * * //

dimensions      [0 2 -2 0 0 0 0];

internalField   nonuniform List<scalar> 
1200
(
-3.86219e-12
-0.00129295
-0.00190553
-0.00238041
-0.00278992
-0.0031501
-0.00346846
-0.00375088
-0.00400311
-0.00422932
-0.00443307
-0.00461677
-0.00478217
-0.00493084
-0.00506382
-0.00518173
-0.00528442
-0.00537079
-0.0054387
-0.00550447
-0.000342427
-0.00147075
-0.00200469
-0.0024691
-0.0028832
-0.00325051
-0.00357504
-0.00386346
-0.00412113
-0.0043527
-0.00456129
-0.00474883
-0.00491749
-0.00506877
-0.00520376
-0.00532308
-0.00542664
-0.00551368
-0.00558237
-0.0056488
-0.0012392
-0.00196847
-0.0023325
-0.00272766
-0.00310677
-0.00345244
-0.00376315
-0.00404175
-0.00429267
-0.00451979
-0.00472546
-0.00491172
-0.00507964
-0.00523021
-0.00536453
-0.00548316
-0.00558645
-0.00567362
-0.00574264
-0.00580952
-0.00235316
-0.0027002
-0.00286148
-0.00315142
-0.00346128
-0.00375665
-0.0040313
-0.00428492
-0.00451846
-0.00473228
-0.0049277
-0.0051059
-0.00526823
-0.00541544
-0.0055475
-0.00566437
-0.005766
-0.00585168
-0.00591952
-0.00598629
-0.00341606
-0.00352761
-0.00352494
-0.00370285
-0.0039256
-0.00415319
-0.00437611
-0.00459076
-0.00479535
-0.00498904
-0.00516969
-0.00533629
-0.00548872
-0.00562734
-0.00575296
-0.00586556
-0.00596439
-0.00604822
-0.0061148
-0.0061812
-0.00430147
-0.00432043
-0.00423269
-0.00432226
-0.00445856
-0.0046149
-0.00478095
-0.00494987
-0.00511826
-0.00528299
-0.00544248
-0.00559478
-0.00573702
-0.00586777
-0.00598597
-0.00609151
-0.00618445
-0.0062639
-0.0063278
-0.00639347
-0.00498987
-0.00500558
-0.00490805
-0.00494789
-0.00501988
-0.00511422
-0.00522643
-0.00535199
-0.00548401
-0.00561793
-0.00575094
-0.00588091
-0.00600697
-0.00612678
-0.00623788
-0.0063384
-0.00642691
-0.00650242
-0.0065627
-0.0066262
-0.00552156
-0.00556744
-0.00550266
-0.00553036
-0.00556899
-0.00562137
-0.00569186
-0.00577918
-0.00587976
-0.0059879
-0.00609781
-0.00620686
-0.00631294
-0.00641514
-0.00651275
-0.0066039
-0.00668671
-0.00675876
-0.00681651
-0.00687872
-0.00594592
-0.00601693
-0.00599713
-0.00603652
-0.00606707
-0.00610151
-0.00614774
-0.00620847
-0.00628308
-0.00636774
-0.00645962
-0.00655378
-0.00664662
-0.00673618
-0.00682083
-0.00690024
-0.00697341
-0.00703828
-0.0070913
-0.00715137
-0.00633207
-0.00641245
-0.00642604
-0.00648412
-0.00651986
-0.00654991
-0.00658819
-0.00663656
-0.0066932
-0.00675829
-0.00682999
-0.00690716
-0.00698809
-0.0070688
-0.00714656
-0.00721912
-0.00728492
-0.00734316
-0.00739046
-0.00744686
-0.00671882
-0.00679403
-0.00682437
-0.00689968
-0.00694556
-0.00698054
-0.00701778
-0.00706105
-0.00711218
-0.00716824
-0.00722746
-0.00728966
-0.00735365
-0.00741998
-0.00748725
-0.00755263
-0.00761396
-0.00766881
-0.00771227
-0.00776555
-0.00711324
-0.00717466
-0.00720715
-0.00728695
-0.00734344
-0.00738897
-0.0074302
-0.00747346
-0.00752047
-0.00757268
-0.00763012
-0.00768867
-0.00774687
-0.00780357
-0.00785851
-0.00791269
-0.00796524
-0.00801414
-0.00805386
-0.00810487
-0.00753973
-0.00758759
-0.0076106
-0.00768414
-0.00774216
-0.00779363
-0.00784305
-0.00788908
-0.007933
-0.00797889
-0.00802743
-0.00808091
-0.0081378
-0.00819431
-0.0082486
-0.00829887
-0.00834495
-0.00838678
-0.0084197
-0.0084665
-0.00798614
-0.00802458
-0.00804227
-0.00810611
-0.00815877
-0.00821336
-0.00826838
-0.00832113
-0.00837134
-0.00841628
-0.00845889
-0.00850156
-0.00854551
-0.00859318
-0.00864278
-0.00869177
-0.00873811
-0.00877961
-0.00881065
-0.00885432
-0.00844227
-0.00847557
-0.00848885
-0.00853961
-0.00858457
-0.00863461
-0.00869009
-0.00874955
-0.00880647
-0.0088603
-0.0089102
-0.00895414
-0.00899515
-0.00903385
-0.00907187
-0.00911085
-0.00914966
-0.00918721
-0.00921701
-0.00926004
-0.00892527
-0.00895504
-0.00896336
-0.00900492
-0.00903755
-0.00907645
-0.00912483
-0.00917728
-0.00923279
-0.00928994
-0.00934424
-0.00939664
-0.00944497
-0.00948817
-0.00952793
-0.0095638
-0.00959711
-0.0096284
-0.00965128
-0.00968967
-0.00943187
-0.00945982
-0.00947299
-0.00950899
-0.00953379
-0.00956697
-0.00960546
-0.00964886
-0.00969617
-0.00974348
-0.00979291
-0.00984272
-0.00989042
-0.00993709
-0.00998045
-0.0100201
-0.0100569
-0.0100892
-0.0101113
-0.0101472
-0.0099825
-0.0100127
-0.0100276
-0.0100618
-0.0100842
-0.0101093
-0.0101407
-0.0101776
-0.0102147
-0.0102538
-0.010294
-0.0103335
-0.0103749
-0.0104163
-0.0104564
-0.0104958
-0.0105324
-0.0105654
-0.0105884
-0.0106244
-0.010538
-0.0105675
-0.0105876
-0.010628
-0.0106508
-0.0106751
-0.010703
-0.0107308
-0.0107624
-0.0107971
-0.0108308
-0.0108656
-0.0108999
-0.0109332
-0.0109676
-0.0110022
-0.0110357
-0.0110673
-0.011089
-0.0111236
-0.0110951
-0.0111227
-0.011149
-0.0111884
-0.0112157
-0.0112446
-0.01127
-0.0112964
-0.0113247
-0.0113519
-0.0113827
-0.011416
-0.0114483
-0.0114809
-0.0115118
-0.011541
-0.0115696
-0.0115968
-0.0116158
-0.0116493
-0.0117062
-0.0117337
-0.0117528
-0.0117897
-0.0118184
-0.0118423
-0.0118669
-0.0118928
-0.0119142
-0.0119369
-0.0119621
-0.0119869
-0.0120156
-0.0120461
-0.0120755
-0.0121043
-0.0121309
-0.0121554
-0.0121718
-0.0122024
-0.0123115
-0.0123353
-0.0123564
-0.0123972
-0.0124245
-0.0124534
-0.0124847
-0.0125096
-0.0125334
-0.0125589
-0.0125796
-0.0126006
-0.0126222
-0.0126418
-0.0126642
-0.0126882
-0.012712
-0.012737
-0.0127546
-0.0127846
-0.0129232
-0.0129445
-0.0129705
-0.0130027
-0.0130291
-0.0130647
-0.0130983
-0.0131309
-0.0131645
-0.0131903
-0.0132134
-0.013238
-0.0132574
-0.0132765
-0.0132958
-0.0133126
-0.0133301
-0.0133488
-0.0133611
-0.013389
-0.0136101
-0.0136336
-0.0136484
-0.0136732
-0.0136956
-0.0137181
-0.0137445
-0.0137787
-0.0138083
-0.0138341
-0.013862
-0.013883
-0.0139024
-0.0139249
-0.013944
-0.0139619
-0.0139794
-0.0139952
-0.0140033
-0.0140265
-0.0142955
-0.0143158
-0.0143352
-0.0143701
-0.0143897
-0.0144083
-0.0144331
-0.0144549
-0.0144757
-0.0145054
-0.0145314
-0.0145533
-0.0145777
-0.0145956
-0.0146109
-0.0146278
-0.0146433
-0.0146601
-0.0146709
-0.0146939
-0.0150247
-0.0150403
-0.0150667
-0.0150933
-0.0151115
-0.0151366
-0.0151556
-0.0151677
-0.0151875
-0.0152061
-0.0152224
-0.015249
-0.0152728
-0.015292
-0.0153118
-0.015326
-0.0153379
-0.0153521
-0.0153587
-0.0153791
-0.0158871
-0.0159052
-0.0159122
-0.0159234
-0.0159382
-0.0159505
-0.0159556
-0.0159678
-0.015977
-0.0159753
-0.0159827
-0.0159908
-0.0159971
-0.0160133
-0.0160292
-0.0160429
-0.0160591
-0.0160749
-0.0160809
-0.0160995
-0.0167113
-0.0167285
-0.0167371
-0.0167643
-0.016778
-0.0167821
-0.0167946
-0.0168078
-0.0168055
-0.0168084
-0.0168105
-0.0167998
-0.0167958
-0.0167926
-0.0167878
-0.0167912
-0.0167995
-0.0168105
-0.0168178
-0.0168384
-0.0175103
-0.0175196
-0.0175484
-0.0175774
-0.0175842
-0.017599
-0.0176185
-0.0176208
-0.0176259
-0.0176384
-0.0176351
-0.0176347
-0.0176341
-0.017622
-0.0176113
-0.0176017
-0.0175921
-0.0175877
-0.017582
-0.0175946
-0.0185427
-0.0185493
-0.0185517
-0.0185367
-0.0185236
-0.018523
-0.0185076
-0.0184909
-0.0184898
-0.0184756
-0.0184633
-0.0184618
-0.0184519
-0.0184438
-0.0184366
-0.0184249
-0.0184142
-0.0184055
-0.0183922
-0.018396
-0.0196555
-0.0196584
-0.0196214
-0.0195895
-0.0195662
-0.0195291
-0.0194847
-0.019459
-0.0194236
-0.0193808
-0.0193538
-0.019322
-0.0192925
-0.0192715
-0.0192504
-0.0192349
-0.0192242
-0.0192172
-0.0192078
-0.0192118
-0.0206151
-0.0206054
-0.0205814
-0.0205734
-0.0205392
-0.020489
-0.0204571
-0.02042
-0.0203639
-0.0203213
-0.0202763
-0.0202254
-0.0201823
-0.0201385
-0.0201
-0.0200692
-0.0200417
-0.0200244
-0.0200089
-0.0200091
-0.0217194
-0.0216879
-0.0216651
-0.0216279
-0.0215557
-0.0215026
-0.0214552
-0.0213834
-0.02132
-0.021263
-0.0211959
-0.0211364
-0.0210772
-0.0210193
-0.0209692
-0.0209205
-0.0208769
-0.0208455
-0.0208163
-0.0208068
-0.0232878
-0.023238
-0.0231152
-0.0229591
-0.0228155
-0.0227004
-0.0225713
-0.022447
-0.0223434
-0.0222353
-0.0221371
-0.0220481
-0.0219619
-0.0218874
-0.021819
-0.0217559
-0.0217039
-0.0216631
-0.0216259
-0.0216112
-0.0248584
-0.0248015
-0.0245429
-0.024296
-0.0240901
-0.023886
-0.0236841
-0.0235132
-0.0233486
-0.0231945
-0.0230595
-0.0229316
-0.022818
-0.0227182
-0.0226275
-0.0225503
-0.0224865
-0.0224365
-0.0223928
-0.022373
-0.0257493
-0.0256862
-0.0253765
-0.0251557
-0.0249262
-0.0246965
-0.0244977
-0.0243112
-0.0241306
-0.0239713
-0.0238219
-0.0236839
-0.0235612
-0.0234496
-0.0233508
-0.0232652
-0.0231917
-0.0231352
-0.0230848
-0.0230559
-0.0258421
-0.0257843
-0.0255549
-0.0254246
-0.0252245
-0.0250631
-0.0249116
-0.024756
-0.0246155
-0.0244831
-0.0243557
-0.0242395
-0.0241316
-0.0240323
-0.0239436
-0.0238637
-0.0237931
-0.023739
-0.0236889
-0.0236531
-0.0255712
-0.0255729
-0.0254107
-0.025365
-0.0252397
-0.0251657
-0.025066
-0.0249749
-0.0248876
-0.0247972
-0.024711
-0.0246289
-0.0245492
-0.0244747
-0.0244061
-0.0243428
-0.024285
-0.0242404
-0.0241979
-0.0241627
-0.0253666
-0.0253559
-0.0253334
-0.0253117
-0.0252611
-0.0252359
-0.0251686
-0.0251521
-0.0250975
-0.0250428
-0.024989
-0.024934
-0.0248796
-0.0248262
-0.0247757
-0.0247288
-0.0246825
-0.0246476
-0.0246143
-0.024581
-0.0253254
-0.0253329
-0.0253454
-0.0253597
-0.0253508
-0.025353
-0.0253322
-0.0253181
-0.025291
-0.0252642
-0.0252312
-0.0251959
-0.0251591
-0.0251206
-0.0250819
-0.0250465
-0.0250081
-0.0249783
-0.0249527
-0.0249195
-0.00377833
-0.00374993
-0.00374449
-0.00375698
-0.00376979
-0.00378433
-0.00380142
-0.00382174
-0.00384579
-0.00387376
-0.00390534
-0.00393969
-0.003976
-0.00401348
-0.00405128
-0.00408822
-0.00412283
-0.00415361
-0.00417903
-0.00419716
-0.0037528
-0.00374977
-0.00375181
-0.00375628
-0.00376509
-0.0037786
-0.00379635
-0.0038182
-0.00384386
-0.0038734
-0.00390673
-0.00394342
-0.00398235
-0.0040221
-0.00406143
-0.00409927
-0.00413452
-0.00416596
-0.00419229
-0.00421198
-0.00371389
-0.0037285
-0.00373741
-0.00373948
-0.0037476
-0.00376182
-0.0037815
-0.00380641
-0.00383621
-0.00386989
-0.00390657
-0.00394604
-0.00398794
-0.00403131
-0.0040744
-0.00411536
-0.00415276
-0.00418551
-0.00421283
-0.00423403
-0.00366531
-0.00368812
-0.00370243
-0.00370716
-0.00371772
-0.00373562
-0.00375934
-0.00378865
-0.0038236
-0.0038635
-0.00390699
-0.00395217
-0.00399798
-0.00404404
-0.00408981
-0.00413407
-0.00417502
-0.00421085
-0.00424041
-0.00426348
-0.00360666
-0.00363111
-0.0036496
-0.00366072
-0.00367622
-0.00369865
-0.00372859
-0.00376534
-0.0038071
-0.00385326
-0.00390342
-0.00395649
-0.00401046
-0.00406309
-0.00411313
-0.00416002
-0.00420311
-0.00424128
-0.00427337
-0.00429911
-0.00354141
-0.00356148
-0.00358149
-0.00360208
-0.00362658
-0.00365642
-0.00369372
-0.00373873
-0.00379001
-0.00384501
-0.00390204
-0.00396078
-0.00402074
-0.00408064
-0.00413828
-0.00419147
-0.00423882
-0.0042796
-0.0043135
-0.00434126
-0.00346921
-0.00348373
-0.00350307
-0.00353081
-0.00356624
-0.00360856
-0.00365726
-0.00371224
-0.00377303
-0.00383825
-0.0039059
-0.00397346
-0.0040396
-0.00410396
-0.004166
-0.0042244
-0.0042772
-0.00432275
-0.00436004
-0.00439034
-0.00338536
-0.00339513
-0.00341413
-0.00344825
-0.00349582
-0.00355214
-0.00361519
-0.00368362
-0.00375581
-0.00383105
-0.00390839
-0.00398627
-0.00406249
-0.00413497
-0.00420263
-0.00426488
-0.00432106
-0.00437005
-0.00441054
-0.00444408
-0.00329091
-0.00329884
-0.00331802
-0.00335963
-0.00342122
-0.00349334
-0.00357183
-0.00365474
-0.00374074
-0.00382791
-0.00391487
-0.00400096
-0.00408526
-0.00416622
-0.00424184
-0.00431055
-0.00437144
-0.00442381
-0.00446677
-0.00450282
-0.00318594
-0.00319317
-0.00321615
-0.00326803
-0.0033449
-0.00343453
-0.00352998
-0.0036283
-0.00372806
-0.00382811
-0.00392682
-0.00402259
-0.00411447
-0.00420173
-0.0042834
-0.00435818
-0.00442455
-0.00448124
-0.00452718
-0.00456582
-0.00306071
-0.00307324
-0.00310756
-0.00317625
-0.00326998
-0.00337696
-0.00349041
-0.00360536
-0.00371951
-0.00383203
-0.00394206
-0.00404837
-0.00414924
-0.00424363
-0.00433104
-0.00441074
-0.00448161
-0.00454229
-0.00459141
-0.00463291
-0.00291485
-0.00293616
-0.00299272
-0.00308676
-0.00320005
-0.00332437
-0.00345462
-0.00358629
-0.00371594
-0.00384149
-0.00396239
-0.00407799
-0.00418736
-0.00428951
-0.00438337
-0.00446814
-0.00454304
-0.00460706
-0.00465892
-0.0047031
-0.00274168
-0.00278224
-0.00287532
-0.00300141
-0.00313854
-0.00328116
-0.00342693
-0.00357334
-0.00371739
-0.00385662
-0.00398912
-0.00411397
-0.00423097
-0.00433982
-0.00443984
-0.00452999
-0.00460923
-0.00467651
-0.00473063
-0.00477713
-0.00253549
-0.00261053
-0.00275389
-0.00291872
-0.00308353
-0.00324688
-0.00340949
-0.00357005
-0.00372672
-0.00387721
-0.00402014
-0.00415454
-0.00427975
-0.00439537
-0.00450087
-0.00459566
-0.00467889
-0.00474935
-0.00480582
-0.00485469
-0.00229301
-0.00242705
-0.0026311
-0.0028384
-0.00303432
-0.00322074
-0.00340162
-0.00357727
-0.00374626
-0.00390712
-0.00405892
-0.00420103
-0.00433327
-0.0044552
-0.00456632
-0.00466592
-0.00475301
-0.00482632
-0.00488474
-0.00493601
-0.00200948
-0.00223524
-0.00250767
-0.0027594
-0.00298764
-0.0032003
-0.00340172
-0.00359275
-0.00377377
-0.00394482
-0.00410543
-0.00425519
-0.00439368
-0.00452072
-0.00463621
-0.00473967
-0.00483015
-0.00490627
-0.00496677
-0.0050206
-0.00168474
-0.00203802
-0.00238364
-0.00267941
-0.00294262
-0.00318402
-0.00340733
-0.00361476
-0.00380809
-0.00398868
-0.00415739
-0.00431431
-0.00445927
-0.00459194
-0.0047119
-0.00481875
-0.00491184
-0.00499006
-0.0050521
-0.00510837
-0.00131964
-0.00183788
-0.00225727
-0.00259744
-0.00289776
-0.00316954
-0.00341666
-0.00364172
-0.00384788
-0.00403822
-0.00421461
-0.00437806
-0.00452874
-0.00466633
-0.00479053
-0.00490087
-0.00499677
-0.00507719
-0.00514061
-0.0051991
-0.000915165
-0.00163689
-0.0021291
-0.00251515
-0.00285262
-0.00315498
-0.00342685
-0.00367143
-0.00389234
-0.0040931
-0.00427707
-0.00444654
-0.0046024
-0.00474459
-0.00487263
-0.00498612
-0.00508459
-0.00516706
-0.00523186
-0.00529275
-0.000461958
-0.00143199
-0.00199872
-0.00243217
-0.00280744
-0.00313998
-0.00343611
-0.00370055
-0.00393764
-0.0041513
-0.0043447
-0.00452047
-0.00468052
-0.00482586
-0.00495682
-0.00507319
-0.00517429
-0.00525893
-0.00532517
-0.00538857
)
;

boundaryField
{
    movingWall
    {
        type            zeroGradient;
    }
    leftSide
    {
        type            zeroGradient;
    }
    rightSide
    {
        type            zeroGradient;
    }
    bottomWall
    {
        type            zeroGradient;
    }
    bottomWall2
    {
        type            zeroGradient;
    }
    frontAndBack
    {
        type            empty;
    }
}


// ************************************************************************* //
