/*--------------------------------*- C++ -*----------------------------------*\
  =========                 |
  \\      /  F ield         | OpenFOAM: The Open Source CFD Toolbox
   \\    /   O peration     | Website:  https://openfoam.org
    \\  /    A nd           | Version:  10
     \\/     M anipulation  |
\*---------------------------------------------------------------------------*/
FoamFile
{
    format      ascii;
    class       surfaceScalarField;
    location    "0.5";
    object      phi;
}
// * * * * * * * * * * * * * * * * * * * * * * * * * * * * * * * * * * * * * //

dimensions      [0 3 -1 0 0 0 0];

internalField   nonuniform List<scalar> 
2320
(
1.6623e-07
3.42403e-05
-3.44065e-05
1.45364e-07
3.57903e-05
-3.57694e-05
1.36491e-07
3.71353e-05
-3.71264e-05
1.30213e-07
3.85325e-05
-3.85262e-05
1.24393e-07
3.99804e-05
-3.99746e-05
1.18387e-07
4.14808e-05
-4.14747e-05
1.12244e-07
4.30352e-05
-4.3029e-05
1.06045e-07
4.46459e-05
-4.46397e-05
9.97916e-08
4.63153e-05
-4.6309e-05
9.335e-08
4.80458e-05
-4.80393e-05
8.66351e-08
4.98397e-05
-4.9833e-05
7.96655e-08
5.16993e-05
-5.16923e-05
7.24629e-08
5.36272e-05
-5.362e-05
6.50462e-08
5.5626e-05
-5.56186e-05
5.73397e-08
5.76984e-05
-5.76907e-05
4.92613e-08
5.98472e-05
-5.98391e-05
4.0787e-08
6.20751e-05
-6.20667e-05
3.19281e-08
6.43852e-05
-6.43763e-05
2.25095e-08
6.67805e-05
-6.6771e-05
6.92647e-05
-6.92552e-05
2.25192e-07
3.40151e-05
1.93781e-07
3.58217e-05
1.72281e-07
3.71568e-05
1.5899e-07
3.85458e-05
1.48603e-07
3.99908e-05
1.3923e-07
4.14901e-05
1.30501e-07
4.30439e-05
1.22131e-07
4.46543e-05
1.13952e-07
4.63235e-05
1.05896e-07
4.80538e-05
9.78857e-08
4.98477e-05
8.97374e-08
5.17075e-05
8.13295e-08
5.36356e-05
7.26091e-08
5.56347e-05
6.36167e-08
5.77074e-05
5.44219e-08
5.98564e-05
4.49882e-08
6.20846e-05
3.51976e-08
6.4395e-05
2.51786e-08
6.67905e-05
6.92753e-05
2.67231e-07
3.37479e-05
2.41262e-07
3.58477e-05
2.16053e-07
3.7182e-05
1.94518e-07
3.85673e-05
1.76917e-07
4.00084e-05
1.63229e-07
4.15038e-05
1.51343e-07
4.30558e-05
1.40464e-07
4.46651e-05
1.30157e-07
4.63338e-05
1.20132e-07
4.80639e-05
1.10241e-07
4.98576e-05
1.00482e-07
5.17172e-05
9.07976e-08
5.36453e-05
8.10623e-08
5.56445e-05
7.11175e-08
5.77173e-05
6.08344e-08
5.98667e-05
5.01837e-08
6.20952e-05
3.92108e-08
6.44059e-05
2.79653e-08
6.68017e-05
6.9287e-05
2.88554e-07
3.34593e-05
2.74849e-07
3.58614e-05
2.49442e-07
3.72074e-05
2.25671e-07
3.85911e-05
2.05598e-07
4.00285e-05
1.88026e-07
4.15214e-05
1.73056e-07
4.30707e-05
1.5967e-07
4.46785e-05
1.47238e-07
4.63462e-05
1.35437e-07
4.80757e-05
1.24021e-07
4.9869e-05
1.12695e-07
5.17285e-05
1.01329e-07
5.36567e-05
8.9936e-08
5.56559e-05
7.85237e-08
5.77288e-05
6.70525e-08
5.98781e-05
5.54059e-08
6.21069e-05
4.34779e-08
6.44179e-05
3.11172e-08
6.68141e-05
6.92999e-05
2.98041e-07
3.31613e-05
2.96271e-07
3.58632e-05
2.75713e-07
3.7228e-05
2.53418e-07
3.86134e-05
2.32461e-07
4.00494e-05
2.13389e-07
4.15405e-05
1.95854e-07
4.30883e-05
1.7987e-07
4.46945e-05
1.65112e-07
4.6361e-05
1.51232e-07
4.80895e-05
1.3797e-07
4.98822e-05
1.2516e-07
5.17414e-05
1.12623e-07
5.36692e-05
1.00074e-07
5.56684e-05
8.73639e-08
5.77415e-05
7.44214e-08
5.98911e-05
6.12618e-08
6.212e-05
4.78854e-08
6.44312e-05
3.42312e-08
6.68277e-05
6.9314e-05
3.02172e-07
3.28591e-05
3.06526e-07
3.58588e-05
2.91882e-07
3.72426e-05
2.73928e-07
3.86313e-05
2.54568e-07
4.00688e-05
2.35364e-07
4.15597e-05
2.17064e-07
4.31066e-05
1.99829e-07
4.47117e-05
1.83548e-07
4.63773e-05
1.67968e-07
4.81051e-05
1.52879e-07
4.98973e-05
1.38207e-07
5.1756e-05
1.23844e-07
5.36836e-05
1.0976e-07
5.56825e-05
9.58192e-08
5.77554e-05
8.18246e-08
5.99051e-05
6.76183e-08
6.21342e-05
5.30325e-08
6.44458e-05
3.79913e-08
6.68428e-05
6.93295e-05
3.09801e-07
3.25493e-05
3.155e-07
3.58531e-05
3.04046e-07
3.72541e-05
2.89897e-07
3.86455e-05
2.72777e-07
4.00859e-05
2.54306e-07
4.15781e-05
2.35935e-07
4.31249e-05
2.18068e-07
4.47296e-05
2.00806e-07
4.63945e-05
1.84164e-07
4.81218e-05
1.68038e-07
4.99135e-05
1.52171e-07
5.17719e-05
1.36453e-07
5.36993e-05
1.20787e-07
5.56982e-05
1.05129e-07
5.77711e-05
8.94813e-08
5.99207e-05
7.37397e-08
6.215e-05
5.7792e-08
6.44618e-05
4.15313e-08
6.6859e-05
6.93463e-05
3.1977e-07
3.22296e-05
3.25242e-07
3.58476e-05
3.13404e-07
3.72659e-05
2.99931e-07
3.86589e-05
2.85483e-07
4.01004e-05
2.69831e-07
4.15938e-05
2.52584e-07
4.31422e-05
2.34752e-07
4.47474e-05
2.16949e-07
4.64123e-05
1.99454e-07
4.81393e-05
1.82259e-07
4.99307e-05
1.65367e-07
5.17888e-05
1.48624e-07
5.3716e-05
1.31889e-07
5.57149e-05
1.15096e-07
5.77879e-05
9.81315e-08
5.99377e-05
8.09268e-08
6.21672e-05
6.34311e-08
6.44793e-05
4.55796e-08
6.68769e-05
6.93645e-05
3.32076e-07
3.18975e-05
3.39062e-07
3.58406e-05
3.2522e-07
3.72798e-05
3.1139e-07
3.86728e-05
2.97419e-07
4.01143e-05
2.82544e-07
4.16087e-05
2.66809e-07
4.31579e-05
2.49825e-07
4.47644e-05
2.32133e-07
4.643e-05
2.1409e-07
4.81573e-05
1.96033e-07
4.99487e-05
1.7807e-07
5.18067e-05
1.60192e-07
5.37339e-05
1.42357e-07
5.57327e-05
1.24393e-07
5.78058e-05
1.06223e-07
5.99558e-05
8.77782e-08
6.21856e-05
6.89873e-08
6.44981e-05
4.97998e-08
6.68961e-05
6.93843e-05
3.46408e-07
3.15511e-05
3.57064e-07
3.583e-05
3.41001e-07
3.72958e-05
3.2576e-07
3.8688e-05
3.11117e-07
4.0129e-05
2.9604e-07
4.16237e-05
2.8034e-07
4.31736e-05
2.64079e-07
4.47807e-05
2.46888e-07
4.64472e-05
2.28975e-07
4.81752e-05
2.10487e-07
4.99672e-05
1.91565e-07
5.18257e-05
1.72486e-07
5.3753e-05
1.53317e-07
5.57519e-05
1.34084e-07
5.78251e-05
1.14674e-07
5.99753e-05
9.49304e-08
6.22054e-05
7.47426e-08
6.45183e-05
5.40703e-08
6.69168e-05
6.94055e-05
3.60229e-07
3.11908e-05
3.76012e-07
3.58142e-05
3.59126e-07
3.73127e-05
3.41931e-07
3.87052e-05
3.25657e-07
4.01453e-05
3.09763e-07
4.16396e-05
2.93567e-07
4.31898e-05
2.76782e-07
4.47975e-05
2.59514e-07
4.64645e-05
2.41657e-07
4.81931e-05
2.2324e-07
4.99856e-05
2.0435e-07
5.18446e-05
1.84814e-07
5.37725e-05
1.64674e-07
5.5772e-05
1.44081e-07
5.78456e-05
1.23158e-07
5.99962e-05
1.01997e-07
6.22265e-05
8.05075e-08
6.45397e-05
5.85364e-08
6.69387e-05
6.94281e-05
3.75329e-07
3.08155e-05
3.97129e-07
3.57924e-05
3.80358e-07
3.73295e-05
3.61627e-07
3.87239e-05
3.43354e-07
4.01635e-05
3.25871e-07
4.16571e-05
3.08834e-07
4.32069e-05
2.91636e-07
4.48147e-05
2.73767e-07
4.64823e-05
2.55059e-07
4.82118e-05
2.3572e-07
5.0005e-05
2.15891e-07
5.18644e-05
1.95775e-07
5.37927e-05
1.75319e-07
5.57925e-05
1.54249e-07
5.78667e-05
1.32466e-07
6.0018e-05
1.09944e-07
6.22491e-05
8.6761e-08
6.45629e-05
6.30899e-08
6.69624e-05
6.94523e-05
3.89765e-07
3.04258e-05
4.1851e-07
3.57637e-05
4.02784e-07
3.73452e-05
3.83629e-07
3.87431e-05
3.64234e-07
4.01829e-05
3.45121e-07
4.16762e-05
3.2621e-07
4.32258e-05
3.07502e-07
4.48334e-05
2.88768e-07
4.65011e-05
2.6973e-07
4.82308e-05
2.49856e-07
5.00248e-05
2.2904e-07
5.18852e-05
2.07471e-07
5.38142e-05
1.85355e-07
5.58146e-05
1.62982e-07
5.78891e-05
1.40293e-07
6.00407e-05
1.17077e-07
6.22723e-05
9.31215e-08
6.45869e-05
6.82289e-08
6.69873e-05
6.94781e-05
4.02196e-07
3.00236e-05
4.36323e-07
3.57295e-05
4.22229e-07
3.73593e-05
4.03888e-07
3.87614e-05
3.84528e-07
4.02023e-05
3.64515e-07
4.16962e-05
3.44391e-07
4.32459e-05
3.24235e-07
4.48535e-05
3.04142e-07
4.65212e-05
2.84013e-07
4.82509e-05
2.63686e-07
5.00452e-05
2.42866e-07
5.1906e-05
2.21061e-07
5.3836e-05
1.98198e-07
5.58375e-05
1.74296e-07
5.7913e-05
1.49577e-07
6.00654e-05
1.2432e-07
6.22975e-05
9.85964e-08
6.46126e-05
7.23719e-08
6.70135e-05
6.95051e-05
4.18634e-07
2.96049e-05
4.60034e-07
3.56881e-05
4.46354e-07
3.7373e-05
4.2771e-07
3.87801e-05
4.07729e-07
4.02223e-05
3.86693e-07
4.17173e-05
3.65007e-07
4.32676e-05
3.43103e-07
4.48754e-05
3.21098e-07
4.65432e-05
2.98905e-07
4.82731e-05
2.76675e-07
5.00674e-05
2.54256e-07
5.19284e-05
2.31636e-07
5.38586e-05
2.08568e-07
5.58605e-05
1.84659e-07
5.79369e-05
1.59729e-07
6.00903e-05
1.33612e-07
6.23236e-05
1.06363e-07
6.46399e-05
7.81744e-08
6.70417e-05
6.9534e-05
4.3134e-07
2.91736e-05
4.7832e-07
3.56412e-05
4.65636e-07
3.73857e-05
4.47907e-07
3.87978e-05
4.28879e-07
4.02413e-05
4.08731e-07
4.17374e-05
3.87388e-07
4.32889e-05
3.65026e-07
4.48978e-05
3.41878e-07
4.65663e-05
3.18327e-07
4.82967e-05
2.94312e-07
5.00914e-05
2.69861e-07
5.19529e-05
2.44993e-07
5.38835e-05
2.19575e-07
5.5886e-05
1.93748e-07
5.79627e-05
1.67405e-07
6.01166e-05
1.40351e-07
6.23507e-05
1.12396e-07
6.46678e-05
8.32951e-08
6.70708e-05
6.95643e-05
4.46182e-07
2.87274e-05
4.99946e-07
3.55874e-05
4.87228e-07
3.73984e-05
4.6836e-07
3.88167e-05
4.48455e-07
4.02612e-05
4.27765e-07
4.17581e-05
4.06275e-07
4.33104e-05
3.83892e-07
4.49202e-05
3.60691e-07
4.65895e-05
3.36592e-07
4.83208e-05
3.11703e-07
5.01163e-05
2.86258e-07
5.19783e-05
2.60192e-07
5.39096e-05
2.33529e-07
5.59126e-05
2.06154e-07
5.79901e-05
1.7791e-07
6.01449e-05
1.48833e-07
6.23798e-05
1.18889e-07
6.46978e-05
8.81139e-08
6.71016e-05
6.9596e-05
4.62636e-07
2.82648e-05
5.24281e-07
3.55257e-05
5.11714e-07
3.7411e-05
4.923e-07
3.88361e-05
4.72046e-07
4.02815e-05
4.50863e-07
4.17793e-05
4.28588e-07
4.33327e-05
4.05327e-07
4.49434e-05
3.81075e-07
4.66138e-05
3.55923e-07
4.83459e-05
3.29994e-07
5.01422e-05
3.03138e-07
5.20052e-05
2.75455e-07
5.39373e-05
2.4713e-07
5.59409e-05
2.18155e-07
5.80191e-05
1.88549e-07
6.01745e-05
1.58175e-07
6.24101e-05
1.26837e-07
6.47291e-05
9.43799e-08
6.7134e-05
6.96296e-05
4.761e-07
2.77887e-05
5.44177e-07
3.54577e-05
5.31803e-07
3.74233e-05
5.11318e-07
3.88566e-05
4.90057e-07
4.03027e-05
4.68339e-07
4.1801e-05
4.46012e-07
4.3355e-05
4.2266e-07
4.49668e-05
3.98141e-07
4.66383e-05
3.72688e-07
4.83714e-05
3.46274e-07
5.01686e-05
3.18964e-07
5.20325e-05
2.90761e-07
5.39655e-05
2.61418e-07
5.59703e-05
2.3097e-07
5.80495e-05
1.99522e-07
6.02059e-05
1.67155e-07
6.24425e-05
1.3397e-07
6.47623e-05
9.99303e-08
6.71681e-05
6.96647e-05
4.95618e-07
2.7293e-05
5.74136e-07
3.53792e-05
5.62637e-07
3.74348e-05
5.40854e-07
3.88783e-05
5.17657e-07
4.03259e-05
4.93908e-07
4.18248e-05
4.6956e-07
4.33794e-05
4.44528e-07
4.49918e-05
4.18788e-07
4.6664e-05
3.91892e-07
4.83983e-05
3.63749e-07
5.01968e-05
3.34763e-07
5.20615e-05
3.04942e-07
5.39953e-05
2.74464e-07
5.60008e-05
2.43256e-07
5.80807e-05
2.10967e-07
6.02382e-05
1.7747e-07
6.2476e-05
1.42662e-07
6.47971e-05
1.06576e-07
6.72042e-05
6.97019e-05
5.12129e-07
2.67809e-05
5.99844e-07
3.52914e-05
5.8892e-07
3.74458e-05
5.66094e-07
3.89012e-05
5.41997e-07
4.035e-05
5.1717e-07
4.18496e-05
4.9159e-07
4.34049e-05
4.65452e-07
4.5018e-05
4.38644e-07
4.66908e-05
4.10958e-07
4.8426e-05
3.82551e-07
5.02252e-05
3.52833e-07
5.20912e-05
3.21647e-07
5.40265e-05
2.89306e-07
5.60331e-05
2.55779e-07
5.81143e-05
2.21409e-07
6.02726e-05
1.86268e-07
6.25112e-05
1.50199e-07
6.48332e-05
1.12943e-07
6.72414e-05
6.97405e-05
5.25122e-07
2.62558e-05
6.21701e-07
3.51949e-05
6.12975e-07
3.74545e-05
5.90351e-07
3.89238e-05
5.65541e-07
4.03748e-05
5.39621e-07
4.18755e-05
5.13056e-07
4.34315e-05
4.85753e-07
4.50453e-05
4.57492e-07
4.67191e-05
4.28632e-07
4.84548e-05
3.99052e-07
5.02548e-05
3.68426e-07
5.21218e-05
3.37061e-07
5.40578e-05
3.04248e-07
5.60659e-05
2.69844e-07
5.81487e-05
2.34042e-07
6.03084e-05
1.96819e-07
6.25484e-05
1.58403e-07
6.48716e-05
1.18989e-07
6.72808e-05
6.9781e-05
5.48009e-07
2.57078e-05
6.57193e-07
3.50857e-05
6.48783e-07
3.74629e-05
6.24101e-07
3.89485e-05
5.96854e-07
4.04021e-05
5.6876e-07
4.19036e-05
5.39878e-07
4.34604e-05
5.10377e-07
4.50748e-05
4.80344e-07
4.67491e-05
4.49689e-07
4.84855e-05
4.17649e-07
5.02868e-05
3.84917e-07
5.21546e-05
3.51311e-07
5.40914e-05
3.16778e-07
5.61005e-05
2.81704e-07
5.81837e-05
2.4548e-07
6.03446e-05
2.07808e-07
6.2586e-05
1.68483e-07
6.49109e-05
1.27307e-07
6.7322e-05
6.98238e-05
5.65159e-07
2.51426e-05
6.85714e-07
3.49651e-05
6.79612e-07
3.7469e-05
6.5491e-07
3.89732e-05
6.27982e-07
4.0429e-05
5.9955e-07
4.1932e-05
5.69601e-07
4.34903e-05
5.38274e-07
4.51061e-05
5.06196e-07
4.67812e-05
4.73057e-07
4.85186e-05
4.39449e-07
5.03204e-05
4.05145e-07
5.21889e-05
3.69334e-07
5.41273e-05
3.32609e-07
5.61372e-05
2.94692e-07
5.82217e-05
2.55651e-07
6.03837e-05
2.15802e-07
6.26259e-05
1.749e-07
6.49518e-05
1.32741e-07
6.73642e-05
6.98674e-05
5.76962e-07
2.45657e-05
7.06747e-07
3.48353e-05
7.01957e-07
3.74738e-05
6.76698e-07
3.89984e-05
6.49053e-07
4.04566e-05
6.20353e-07
4.19607e-05
5.90539e-07
4.35202e-05
5.59478e-07
4.51372e-05
5.26723e-07
4.6814e-05
4.92588e-07
4.85528e-05
4.5787e-07
5.03551e-05
4.21891e-07
5.22248e-05
3.85503e-07
5.41636e-05
3.48214e-07
5.61745e-05
3.09362e-07
5.82605e-05
2.69245e-07
6.04238e-05
2.27607e-07
6.26675e-05
1.84452e-07
6.4995e-05
1.40054e-07
6.74086e-05
6.9913e-05
6.01935e-07
2.39637e-05
7.48759e-07
3.46885e-05
7.45858e-07
3.74767e-05
7.18131e-07
3.90262e-05
6.86701e-07
4.04881e-05
6.54561e-07
4.19929e-05
6.2174e-07
4.3553e-05
5.88264e-07
4.51706e-05
5.5348e-07
4.68488e-05
5.18038e-07
4.85882e-05
4.8058e-07
5.03926e-05
4.41937e-07
5.22635e-05
4.02593e-07
5.4203e-05
3.62156e-07
5.62149e-05
3.21448e-07
5.83012e-05
2.80047e-07
6.04652e-05
2.37434e-07
6.27102e-05
1.93437e-07
6.50389e-05
1.47681e-07
6.74543e-05
6.99605e-05
6.16972e-07
2.33468e-05
7.75769e-07
3.45297e-05
7.75136e-07
3.74773e-05
7.45998e-07
3.90553e-05
7.13816e-07
4.05203e-05
6.80506e-07
4.20262e-05
6.46631e-07
4.35868e-05
6.11519e-07
4.52057e-05
5.76356e-07
4.68839e-05
5.40013e-07
4.86245e-05
5.0226e-07
5.04303e-05
4.63649e-07
5.23021e-05
4.22738e-07
5.42439e-05
3.80385e-07
5.62573e-05
3.3685e-07
5.83447e-05
2.92058e-07
6.051e-05
2.4659e-07
6.27556e-05
2.00451e-07
6.50851e-05
1.53468e-07
6.75013e-05
7.00089e-05
6.22714e-07
2.2724e-05
7.91225e-07
3.43612e-05
7.93779e-07
3.74748e-05
7.65782e-07
3.90833e-05
7.33453e-07
4.05526e-05
6.9974e-07
4.20599e-05
6.64599e-07
4.3622e-05
6.28655e-07
4.52417e-05
5.91919e-07
4.69207e-05
5.53543e-07
4.86629e-05
5.15511e-07
5.04684e-05
4.76312e-07
5.23413e-05
4.36034e-07
5.42842e-05
3.94743e-07
5.62986e-05
3.51401e-07
5.83881e-05
3.06345e-07
6.0555e-05
2.5956e-07
6.28024e-05
2.11139e-07
6.51335e-05
1.61439e-07
6.7551e-05
7.00597e-05
6.50379e-07
2.20737e-05
8.37115e-07
3.41745e-05
8.39823e-07
3.74721e-05
8.07287e-07
3.91158e-05
7.69324e-07
4.05906e-05
7.30693e-07
4.20985e-05
6.91333e-07
4.36613e-05
6.52088e-07
4.52809e-05
6.10841e-07
4.69619e-05
5.69822e-07
4.87039e-05
5.28212e-07
5.051e-05
4.85586e-07
5.23839e-05
4.4333e-07
5.43264e-05
4.00484e-07
5.63414e-05
3.57124e-07
5.84315e-05
3.12926e-07
6.05992e-05
2.67115e-07
6.28482e-05
2.19536e-07
6.51811e-05
1.6976e-07
6.76008e-05
7.01116e-05
6.73234e-07
2.14004e-05
8.79631e-07
3.39681e-05
8.87307e-07
3.74644e-05
8.52186e-07
3.9151e-05
8.11184e-07
4.06316e-05
7.68672e-07
4.2141e-05
7.26512e-07
4.37035e-05
6.82743e-07
4.53247e-05
6.38821e-07
4.70058e-05
5.95101e-07
4.87477e-05
5.49531e-07
5.05556e-05
5.03893e-07
5.24296e-05
4.57567e-07
5.43728e-05
4.10568e-07
5.63884e-05
3.63523e-07
5.84785e-05
3.16007e-07
6.06467e-05
2.68284e-07
6.28959e-05
2.20091e-07
6.52293e-05
1.70875e-07
6.765e-05
7.0162e-05
6.55434e-07
2.0745e-05
8.63103e-07
3.37604e-05
8.73446e-07
3.7454e-05
8.40192e-07
3.91842e-05
8.0083e-07
4.06709e-05
7.60876e-07
4.2181e-05
7.19953e-07
4.37444e-05
6.77898e-07
4.53668e-05
6.36895e-07
4.70468e-05
5.94048e-07
4.87905e-05
5.50864e-07
5.05987e-05
5.07367e-07
5.24731e-05
4.6247e-07
5.44177e-05
4.16936e-07
5.64339e-05
3.70275e-07
5.85252e-05
3.22689e-07
6.06943e-05
2.74565e-07
6.29441e-05
2.25626e-07
6.52782e-05
1.76058e-07
6.76996e-05
7.02124e-05
6.46643e-07
2.00984e-05
8.6254e-07
3.35445e-05
8.75304e-07
3.74413e-05
8.42566e-07
3.92169e-05
8.022e-07
4.07113e-05
7.60792e-07
4.22224e-05
7.1724e-07
4.3788e-05
6.74921e-07
4.54091e-05
6.31624e-07
4.70901e-05
5.87618e-07
4.88345e-05
5.44489e-07
5.06419e-05
5.00541e-07
5.2517e-05
4.56604e-07
5.44616e-05
4.12402e-07
5.64781e-05
3.67404e-07
5.85702e-05
3.21808e-07
6.07399e-05
2.7517e-07
6.29907e-05
2.27294e-07
6.53261e-05
1.78163e-07
6.77487e-05
7.02627e-05
6.68033e-07
1.94303e-05
8.92922e-07
3.33196e-05
8.99435e-07
3.74348e-05
8.55352e-07
3.9261e-05
8.05985e-07
4.07606e-05
7.56266e-07
4.22721e-05
7.08739e-07
4.38355e-05
6.62891e-07
4.54549e-05
6.16526e-07
4.71365e-05
5.722e-07
4.88788e-05
5.28e-07
5.06861e-05
4.84182e-07
5.25608e-05
4.41153e-07
5.45046e-05
3.98056e-07
5.65212e-05
3.55068e-07
5.86131e-05
3.12e-07
6.0783e-05
2.68286e-07
6.30344e-05
2.23897e-07
6.53705e-05
1.78453e-07
6.77941e-05
7.03096e-05
6.43446e-07
1.87869e-05
8.75752e-07
3.30873e-05
8.85794e-07
3.74247e-05
8.40133e-07
3.93067e-05
7.87307e-07
4.08135e-05
7.34823e-07
4.23246e-05
6.85748e-07
4.38846e-05
6.36657e-07
4.5504e-05
5.90114e-07
4.7183e-05
5.45091e-07
4.89239e-05
5.00766e-07
5.07304e-05
4.57939e-07
5.26037e-05
4.15682e-07
5.45469e-05
3.73868e-07
5.6563e-05
3.32682e-07
5.86543e-05
2.91695e-07
6.0824e-05
2.50829e-07
6.30753e-05
2.09905e-07
6.54114e-05
1.68642e-07
6.78354e-05
7.03514e-05
4.93e-07
1.82939e-05
6.69114e-07
3.29112e-05
6.79451e-07
3.74144e-05
6.50532e-07
3.93356e-05
6.15128e-07
4.08489e-05
5.82513e-07
4.23572e-05
5.49332e-07
4.39178e-05
5.1697e-07
4.55364e-05
4.85748e-07
4.72143e-05
4.54105e-07
4.89555e-05
4.22915e-07
5.07616e-05
3.91771e-07
5.26348e-05
3.60269e-07
5.45784e-05
3.28745e-07
5.65946e-05
2.96898e-07
5.86862e-05
2.64594e-07
6.08563e-05
2.31815e-07
6.31081e-05
1.98406e-07
6.54448e-05
1.64452e-07
6.78694e-05
7.0386e-05
2.7942e-07
1.80145e-05
4.00836e-07
3.27898e-05
4.27099e-07
3.73881e-05
4.22098e-07
3.93406e-05
4.13328e-07
4.08576e-05
4.0092e-07
4.23696e-05
3.86937e-07
4.39317e-05
3.72508e-07
4.55508e-05
3.5645e-07
4.72303e-05
3.39292e-07
4.89727e-05
3.2141e-07
5.07795e-05
3.02265e-07
5.26539e-05
2.82287e-07
5.45984e-05
2.61523e-07
5.66153e-05
2.39748e-07
5.8708e-05
2.17021e-07
6.0879e-05
1.93587e-07
6.31315e-05
1.69206e-07
6.54692e-05
1.43909e-07
6.78947e-05
7.04116e-05
8.33548e-08
1.79311e-05
1.20483e-07
3.27527e-05
1.42819e-07
3.73658e-05
1.61669e-07
3.93218e-05
1.77536e-07
4.08418e-05
1.90016e-07
4.23572e-05
2.00144e-07
4.39216e-05
2.07399e-07
4.55436e-05
2.11447e-07
4.72263e-05
2.13278e-07
4.89708e-05
2.12437e-07
5.07803e-05
2.09245e-07
5.26571e-05
2.03951e-07
5.46037e-05
1.96513e-07
5.66228e-05
1.87091e-07
5.87174e-05
1.75955e-07
6.08902e-05
1.63198e-07
6.31442e-05
1.49038e-07
6.54834e-05
1.33686e-07
6.791e-05
7.0428e-05
-7.19295e-09
1.79383e-05
9.07697e-10
3.27445e-05
2.01797e-08
3.73465e-05
4.22539e-08
3.92997e-05
6.10802e-08
4.0823e-05
7.73778e-08
4.23409e-05
9.16617e-08
4.39073e-05
1.02927e-07
4.55323e-05
1.12363e-07
4.72168e-05
1.19654e-07
4.89635e-05
1.24659e-07
5.07753e-05
1.27816e-07
5.2654e-05
1.28918e-07
5.46026e-05
1.28252e-07
5.66234e-05
1.25966e-07
5.87197e-05
1.22079e-07
6.0894e-05
1.17025e-07
6.31493e-05
1.10773e-07
6.54896e-05
1.03361e-07
6.79174e-05
7.04357e-05
-5.43229e-08
1.79926e-05
-1.05274e-07
3.27955e-05
-1.00683e-07
3.73419e-05
-7.48271e-08
3.92738e-05
-4.69306e-08
4.07951e-05
-2.17522e-08
4.23157e-05
1.32807e-09
4.38843e-05
2.1764e-08
4.55119e-05
3.99311e-08
4.71987e-05
5.52669e-08
4.89482e-05
6.83858e-08
5.07622e-05
7.90505e-08
5.26433e-05
8.74959e-08
5.45941e-05
9.37728e-08
5.66172e-05
9.8151e-08
5.87153e-05
1.00577e-07
6.08916e-05
1.01337e-07
6.31485e-05
1.00978e-07
6.549e-05
9.90761e-08
6.79193e-05
7.04378e-05
-1.60851e-08
-9.12486e-08
-1.07831e-07
-9.57194e-08
-7.96604e-08
-6.33092e-08
-4.79905e-08
-3.36634e-08
-2.01676e-08
-7.74542e-09
3.7305e-09
1.4187e-08
2.36453e-08
3.21324e-08
3.96729e-08
4.63581e-08
5.22283e-08
5.75145e-08
6.224e-08
2.75583e-09
3.45859e-05
2.71307e-09
3.58701e-05
1.60476e-09
3.72039e-05
1.12763e-09
3.85855e-05
1.02719e-09
4.00188e-05
1.08828e-09
4.15055e-05
1.21202e-09
4.30476e-05
1.33214e-09
4.4647e-05
1.44464e-09
4.63059e-05
1.55998e-09
4.80264e-05
1.67656e-09
4.98109e-05
1.75445e-09
5.16616e-05
1.74973e-09
5.35812e-05
1.65812e-09
5.55721e-05
1.50792e-09
5.76369e-05
1.33258e-09
5.97785e-05
1.1437e-09
6.19995e-05
9.32277e-10
6.43031e-05
6.63707e-10
6.66924e-05
6.91705e-05
-8.17612e-09
3.45869e-05
-4.15666e-09
3.58661e-05
4.91733e-10
3.71992e-05
1.89327e-09
3.85841e-05
2.31096e-09
4.00184e-05
2.67328e-09
4.15052e-05
3.12795e-09
4.30471e-05
3.63455e-09
4.46465e-05
4.09717e-09
4.63055e-05
4.43547e-09
4.80261e-05
4.62436e-09
4.98107e-05
4.71326e-09
5.16615e-05
4.7477e-09
5.35812e-05
4.68721e-09
5.55722e-05
4.45916e-09
5.76372e-05
4.02602e-09
5.97789e-05
3.41304e-09
6.20001e-05
2.67775e-09
6.43039e-05
1.78806e-09
6.66933e-05
6.91715e-05
3.18896e-09
3.4586e-05
2.33473e-09
3.58669e-05
1.72438e-09
3.71999e-05
2.92937e-09
3.85829e-05
3.89578e-09
4.00174e-05
4.68969e-09
4.15044e-05
5.46337e-09
4.30464e-05
6.18068e-09
4.46458e-05
6.86109e-09
4.63048e-05
7.46003e-09
4.80255e-05
7.87108e-09
4.98103e-05
7.99906e-09
5.16614e-05
7.82979e-09
5.35813e-05
7.44307e-09
5.55725e-05
6.91741e-09
5.76377e-05
6.25503e-09
5.97795e-05
5.40933e-09
6.2001e-05
4.34252e-09
6.43049e-05
2.98299e-09
6.66946e-05
6.9173e-05
-3.29053e-09
3.4585e-05
-1.23065e-09
3.58649e-05
1.82896e-09
3.71968e-05
3.50382e-09
3.85813e-05
5.08011e-09
4.00158e-05
6.35644e-09
4.15031e-05
7.58302e-09
4.30451e-05
8.66257e-09
4.46447e-05
9.53635e-09
4.63039e-05
1.01525e-08
4.80249e-05
1.0599e-08
4.98098e-05
1.08809e-08
5.16611e-05
1.08872e-08
5.35813e-05
1.05023e-08
5.55729e-05
9.69892e-09
5.76385e-05
8.562e-09
5.97807e-05
7.19386e-09
6.20024e-05
5.60372e-09
6.43065e-05
3.89078e-09
6.66963e-05
6.91749e-05
5.93651e-09
3.4583e-05
4.72321e-09
3.58661e-05
3.11418e-09
3.71984e-05
4.5441e-09
3.85798e-05
6.59287e-09
4.00138e-05
8.56026e-09
4.15011e-05
1.01159e-08
4.30436e-05
1.15301e-08
4.46433e-05
1.26859e-08
4.63028e-05
1.3478e-08
4.80241e-05
1.38172e-08
4.98095e-05
1.37555e-08
5.16612e-05
1.34363e-08
5.35816e-05
1.291e-08
5.55734e-05
1.21037e-08
5.76393e-05
1.09074e-08
5.97819e-05
9.27209e-09
6.2004e-05
7.25545e-09
6.43085e-05
5.01195e-09
6.66986e-05
6.91773e-05
-1.71287e-10
3.45818e-05
2.21338e-09
3.58637e-05
4.28748e-09
3.71963e-05
5.92134e-09
3.85782e-05
8.24768e-09
4.00115e-05
1.07588e-08
4.14986e-05
1.28817e-08
4.30415e-05
1.45044e-08
4.46417e-05
1.57163e-08
4.63015e-05
1.6654e-08
4.80231e-05
1.72164e-08
4.98089e-05
1.72695e-08
5.16611e-05
1.67363e-08
5.35822e-05
1.57004e-08
5.55745e-05
1.43214e-08
5.76407e-05
1.26821e-08
5.97835e-05
1.07658e-08
6.20059e-05
8.54272e-09
6.43108e-05
6.00197e-09
6.67011e-05
6.91802e-05
7.9927e-09
3.45793e-05
7.75802e-09
3.58639e-05
7.30065e-09
3.71968e-05
8.81444e-09
3.85767e-05
1.10473e-08
4.00092e-05
1.35969e-08
4.14961e-05
1.60227e-08
4.3039e-05
1.79443e-08
4.46398e-05
1.92669e-08
4.63002e-05
1.99916e-08
4.80224e-05
2.02654e-08
4.98086e-05
2.0181e-08
5.16612e-05
1.9705e-08
5.35826e-05
1.87288e-08
5.55755e-05
1.71793e-08
5.76422e-05
1.51089e-08
5.97856e-05
1.2638e-08
6.20084e-05
9.882e-09
6.43135e-05
6.90233e-09
6.67041e-05
6.91834e-05
1.64475e-09
3.45776e-05
4.8652e-09
3.58607e-05
8.69752e-09
3.7193e-05
1.14239e-08
3.8574e-05
1.42705e-08
4.00064e-05
1.6993e-08
4.14933e-05
1.94187e-08
4.30366e-05
2.13895e-08
4.46378e-05
2.28358e-08
4.62988e-05
2.36813e-08
4.80216e-05
2.3862e-08
4.98084e-05
2.33913e-08
5.16617e-05
2.23971e-08
5.35836e-05
2.09966e-08
5.55769e-05
1.9223e-08
5.7644e-05
1.70344e-08
5.97878e-05
1.44032e-08
6.2011e-05
1.13418e-08
6.43166e-05
7.94129e-09
6.67075e-05
6.91871e-05
8.28648e-09
3.45753e-05
1.01486e-08
3.58588e-05
1.20822e-08
3.7191e-05
1.53837e-08
3.85707e-05
1.84534e-08
4.00033e-05
2.11939e-08
4.14906e-05
2.35913e-08
4.30342e-05
2.5473e-08
4.46359e-05
2.67428e-08
4.62975e-05
2.73742e-08
4.80209e-05
2.7421e-08
4.98084e-05
2.68811e-08
5.16622e-05
2.57236e-08
5.35848e-05
2.39735e-08
5.55786e-05
2.17038e-08
5.76463e-05
1.90047e-08
5.97905e-05
1.59426e-08
6.20141e-05
1.25388e-08
6.432e-05
8.83736e-09
6.67112e-05
6.91911e-05
2.57606e-09
3.45734e-05
7.46704e-09
3.58539e-05
1.39442e-08
3.71845e-05
1.88975e-08
3.85657e-05
2.26715e-08
3.99995e-05
2.55971e-08
4.14877e-05
2.78613e-08
4.3032e-05
2.95505e-08
4.46342e-05
3.06415e-08
4.62964e-05
3.10599e-08
4.80205e-05
3.07947e-08
4.98087e-05
2.98926e-08
5.16631e-05
2.84319e-08
5.35863e-05
2.64455e-08
5.55806e-05
2.39612e-08
5.76487e-05
2.10122e-08
5.97934e-05
1.76206e-08
6.20175e-05
1.38545e-08
6.43238e-05
9.74068e-09
6.67153e-05
6.91956e-05
8.65558e-09
3.45709e-05
1.26521e-08
3.58499e-05
1.804e-08
3.71792e-05
2.35263e-08
3.85602e-05
2.77308e-08
3.99953e-05
3.07179e-08
4.14847e-05
3.28177e-08
4.30299e-05
3.42231e-08
4.46328e-05
3.4949e-08
4.62957e-05
3.50177e-08
4.80205e-05
3.44264e-08
4.98093e-05
3.32165e-08
5.16643e-05
3.14121e-08
5.35881e-05
2.9028e-08
5.5583e-05
2.6136e-08
5.76516e-05
2.27967e-08
5.97968e-05
1.90619e-08
6.20212e-05
1.49975e-08
6.43278e-05
1.05857e-08
6.67197e-05
6.92003e-05
4.44285e-09
3.45681e-05
1.2426e-08
3.5842e-05
2.15261e-08
3.71701e-05
2.79506e-08
3.85538e-05
3.26491e-08
3.99906e-05
3.57737e-08
4.14816e-05
3.76946e-08
4.30279e-05
3.87592e-08
4.46318e-05
3.91127e-08
4.62953e-05
3.87858e-08
4.80208e-05
3.77853e-08
4.98103e-05
3.6136e-08
5.1666e-05
3.38807e-08
5.35903e-05
3.1189e-08
5.55857e-05
2.80844e-08
5.76547e-05
2.45497e-08
5.98003e-05
2.05941e-08
6.20252e-05
1.61977e-08
6.43322e-05
1.14039e-08
6.67245e-05
6.92055e-05
1.06979e-08
3.4564e-05
1.97533e-08
3.58329e-05
2.69698e-08
3.71628e-05
3.33094e-08
3.85474e-05
3.79864e-08
3.9986e-05
4.11051e-08
4.14784e-05
4.29479e-08
4.30261e-05
4.37021e-08
4.4631e-05
4.35353e-08
4.62955e-05
4.2678e-08
4.80216e-05
4.11725e-08
4.98118e-05
3.91078e-08
5.1668e-05
3.65846e-08
5.35928e-05
3.35339e-08
5.55887e-05
3.001e-08
5.76583e-05
2.60992e-08
5.98042e-05
2.18408e-08
6.20294e-05
1.72176e-08
6.43368e-05
1.21849e-08
6.67296e-05
6.92109e-05
1.01115e-08
3.45577e-05
2.2623e-08
3.58204e-05
3.26219e-08
3.71528e-05
3.88151e-08
3.85413e-05
4.27024e-08
3.99821e-05
4.56227e-08
4.14755e-05
4.75237e-08
4.30242e-05
4.81571e-08
4.46304e-05
4.76519e-08
4.6296e-05
4.62153e-08
4.80231e-05
4.42228e-08
4.98138e-05
4.18017e-08
5.16705e-05
3.89535e-08
5.35957e-05
3.56929e-08
5.5592e-05
3.1972e-08
5.7662e-05
2.77812e-08
5.98084e-05
2.31707e-08
6.2034e-05
1.81936e-08
6.43418e-05
1.28427e-08
6.67349e-05
6.92166e-05
1.95837e-08
3.45474e-05
3.24272e-08
3.58076e-05
3.9955e-08
3.71453e-05
4.4706e-08
3.85365e-05
4.82872e-08
3.99785e-05
5.09056e-08
4.14729e-05
5.21482e-08
4.3023e-05
5.21768e-08
4.46304e-05
5.12799e-08
4.62969e-05
4.96948e-08
4.80247e-05
4.75029e-08
4.98159e-05
4.47379e-08
5.16732e-05
4.14414e-08
5.3599e-05
3.76868e-08
5.55957e-05
3.35546e-08
5.76661e-05
2.90799e-08
5.98129e-05
2.42608e-08
6.20388e-05
1.91125e-08
6.4347e-05
1.35629e-08
6.67405e-05
6.92226e-05
2.34477e-08
3.45332e-05
3.90367e-08
3.5792e-05
4.73523e-08
3.7137e-05
5.10424e-08
3.85328e-05
5.42657e-08
3.99753e-05
5.60696e-08
4.14711e-05
5.66437e-08
4.30224e-05
5.62223e-08
4.46308e-05
5.49462e-08
4.62982e-05
5.29158e-08
4.80267e-05
5.02621e-08
4.98186e-05
4.71458e-08
5.16764e-05
4.36281e-08
5.36025e-05
3.96997e-08
5.55997e-05
3.53339e-08
5.76705e-05
3.05271e-08
5.98177e-05
2.53283e-08
6.2044e-05
1.98415e-08
6.43525e-05
1.40711e-08
6.67462e-05
6.92287e-05
3.80445e-08
3.45126e-05
5.15597e-08
3.57784e-05
5.4582e-08
3.7134e-05
5.85635e-08
3.85288e-05
6.08493e-08
3.9973e-05
6.16927e-08
4.14703e-05
6.14196e-08
4.30226e-05
6.02997e-08
4.46319e-05
5.84946e-08
4.63e-05
5.60889e-08
4.80291e-05
5.31125e-08
4.98216e-05
4.95829e-08
5.16799e-05
4.559e-08
5.36065e-05
4.12349e-08
5.5604e-05
3.65784e-08
5.76751e-05
3.16179e-08
5.98226e-05
2.63038e-08
6.20494e-05
2.06601e-08
6.43581e-05
1.47187e-08
6.67522e-05
6.92352e-05
4.86533e-08
3.44856e-05
5.79304e-08
3.57692e-05
6.3478e-08
3.71284e-05
6.63148e-08
3.8526e-05
6.72646e-08
3.9972e-05
6.6972e-08
4.14706e-05
6.58775e-08
4.30237e-05
6.41264e-08
4.46337e-05
6.17629e-08
4.63023e-05
5.88494e-08
4.8032e-05
5.54642e-08
4.9825e-05
5.16862e-08
5.16837e-05
4.75269e-08
5.36107e-05
4.29636e-08
5.56086e-05
3.801e-08
5.76801e-05
3.27027e-08
5.9828e-05
2.70742e-08
6.2055e-05
2.11571e-08
6.4364e-05
1.51016e-08
6.67582e-05
6.92417e-05
6.98172e-08
3.44497e-05
7.17427e-08
3.57672e-05
7.37062e-08
3.71265e-05
7.46645e-08
3.8525e-05
7.41775e-08
3.99725e-05
7.2695e-08
4.1472e-05
7.05301e-08
4.30259e-05
6.79149e-08
4.46363e-05
6.49366e-08
4.63053e-05
6.15696e-08
4.80354e-05
5.77811e-08
4.98288e-05
5.35661e-08
5.16879e-05
4.89895e-08
5.36152e-05
4.41306e-08
5.56134e-05
3.90117e-08
5.76852e-05
3.36195e-08
5.98333e-05
2.79243e-08
6.20607e-05
2.18236e-08
6.43701e-05
1.56241e-08
6.67644e-05
6.92485e-05
8.67354e-08
8.45417e-08
8.4572e-08
8.34229e-08
8.1326e-08
7.8615e-08
7.55116e-08
7.20866e-08
6.83627e-08
6.43993e-08
6.01981e-08
5.57324e-08
5.09461e-08
4.57958e-08
4.03153e-08
3.45599e-08
2.85757e-08
2.23731e-08
1.5748e-08
)
;

boundaryField
{
    movingWall
    {
        type            calculated;
        value           nonuniform List<scalar> 
60
(
1.29957e-08
1.45672e-08
1.6247e-08
1.82168e-08
2.01409e-08
2.24833e-08
2.47809e-08
2.73082e-08
3.00828e-08
3.2861e-08
3.59055e-08
3.88727e-08
4.24353e-08
4.54089e-08
4.92223e-08
5.29995e-08
5.64492e-08
6.08051e-08
6.48053e-08
6.93673e-08
7.43e-08
7.85161e-08
8.4514e-08
8.91283e-08
9.44602e-08
1.00149e-07
1.05122e-07
1.10585e-07
1.17944e-07
1.2043e-07
1.25625e-07
1.27873e-07
1.31564e-07
1.26853e-07
1.2986e-07
1.18273e-07
1.17278e-07
9.5712e-08
9.69647e-08
6.69446e-08
2.43211e-10
7.92873e-10
1.46452e-09
1.97276e-09
2.5779e-09
3.16621e-09
3.67613e-09
4.25245e-09
4.79509e-09
5.30221e-09
5.81951e-09
6.27872e-09
6.76964e-09
7.14271e-09
7.5922e-09
7.88743e-09
8.29002e-09
8.53146e-09
8.8563e-09
9.06373e-09
)
;
    }
    leftSide
    {
        type            calculated;
        value           nonuniform List<scalar> 
20
(
-3.4585e-05
-3.587e-05
-3.72028e-05
-3.85851e-05
-4.00187e-05
-4.15056e-05
-4.30477e-05
-4.46472e-05
-4.6306e-05
-4.80265e-05
-4.9811e-05
-5.16617e-05
-5.35812e-05
-5.5572e-05
-5.76368e-05
-5.97783e-05
-6.19993e-05
-6.43029e-05
-6.66921e-05
-6.91701e-05
)
;
    }
    rightSide
    {
        type            calculated;
        value           nonuniform List<scalar> 
20
(
1.80087e-05
3.28707e-05
3.73585e-05
3.92617e-05
4.0779e-05
4.22993e-05
4.38689e-05
4.54975e-05
4.71852e-05
4.89358e-05
5.07507e-05
5.26329e-05
5.45846e-05
5.66087e-05
5.87077e-05
6.08849e-05
6.31427e-05
6.54847e-05
6.79146e-05
7.04331e-05
)
;
    }
    bottomWall
    {
        type            calculated;
        value           uniform 0;
    }
    bottomWall2
    {