/*--------------------------------*- C++ -*----------------------------------*\
  =========                 |
  \\      /  F ield         | OpenFOAM: The Open Source CFD Toolbox
   \\    /   O peration     | Website:  https://openfoam.org
    \\  /    A nd           | Version:  10
     \\/     M anipulation  |
\*---------------------------------------------------------------------------*/
FoamFile
{
    format      ascii;
    class       volVectorField;
    location    "0.5";
    object      U;
}
// * * * * * * * * * * * * * * * * * * * * * * * * * * * * * * * * * * * * * //

dimensions      [0 1 -1 0 0 0 0];

internalField   nonuniform List<vector> 
1200
(
(0 0.00211949 0.992378)
(0 0.00377156 0.99758)
(0 0.00318827 0.998236)
(0 0.00294491 0.99871)
(0 0.00279664 0.999106)
(0 0.00266117 0.999451)
(0 0.00252643 0.999752)
(0 0.0023882 1.00001)
(0 0.00225099 1.00024)
(0 0.00211086 1.00044)
(0 0.00196534 1.00061)
(0 0.00181502 1.00076)
(0 0.00165886 1.00089)
(0 0.00149901 1.001)
(0 0.00133435 1.00109)
(0 0.0011618 1.00117)
(0 0.000979774 1.00124)
(0 0.000788779 1.0013)
(0 0.000627836 1.00134)
(0 0.000286959 1.00139)
(0 0.00297825 0.984904)
(0 0.00500082 0.997586)
(0 0.00387224 0.998151)
(0 0.00348882 0.9986)
(0 0.00325208 0.999002)
(0 0.00304986 0.999355)
(0 0.00285803 0.999661)
(0 0.00267602 0.999929)
(0 0.00249754 1.00016)
(0 0.00232292 1.00037)
(0 0.00215332 1.00054)
(0 0.00198178 1.00069)
(0 0.00180668 1.00083)
(0 0.00162492 1.00094)
(0 0.00143657 1.00104)
(0 0.00124375 1.00113)
(0 0.00104526 1.0012)
(0 0.000840665 1.00125)
(0 0.000673283 1.0013)
(0 0.000310152 1.00134)
(0 0.00361818 0.977737)
(0 0.00596641 0.998088)
(0 0.00448793 0.998664)
(0 0.00403849 0.99906)
(0 0.00373475 0.999428)
(0 0.0034592 0.999758)
(0 0.00320795 1.00005)
(0 0.0029749 1.00031)
(0 0.00275676 1.00054)
(0 0.00254985 1.00074)
(0 0.002345 1.00091)
(0 0.00214423 1.00106)
(0 0.00194621 1.00119)
(0 0.00174851 1.0013)
(0 0.00154897 1.0014)
(0 0.00134234 1.00148)
(0 0.00112696 1.00155)
(0 0.000903542 1.00161)
(0 0.00072248 1.00165)
(0 0.000333498 1.0017)
(0 0.00395163 0.970463)
(0 0.0064683 0.9985)
(0 0.0048918 0.999002)
(0 0.00448383 0.999279)
(0 0.00414921 0.999574)
(0 0.0038353 0.999855)
(0 0.00353837 1.00011)
(0 0.0032629 1.00034)
(0 0.00300957 1.00055)
(0 0.00277056 1.00074)
(0 0.00254468 1.0009)
(0 0.00232253 1.00105)
(0 0.0020993 1.00117)
(0 0.00187591 1.00129)
(0 0.00165149 1.00138)
(0 0.00142684 1.00146)
(0 0.00119868 1.00153)
(0 0.000963416 1.00158)
(0 0.000775711 1.00162)
(0 0.000360464 1.00167)
(0 0.00406567 0.962888)
(0 0.00664873 0.999196)
(0 0.00512883 0.999853)
(0 0.00483552 1.00004)
(0 0.00451053 1.00025)
(0 0.00416427 1.00046)
(0 0.00383803 1.00067)
(0 0.00353734 1.00086)
(0 0.0032526 1.00104)
(0 0.00298551 1.00121)
(0 0.00272951 1.00136)
(0 0.00248364 1.00149)
(0 0.002247 1.0016)
(0 0.00201106 1.0017)
(0 0.00177297 1.00179)
(0 0.00152972 1.00187)
(0 0.00127999 1.00194)
(0 0.00102368 1.00199)
(0 0.000823612 1.00203)
(0 0.000384266 1.00208)
(0 0.00404684 0.954741)
(0 0.00658965 0.999509)
(0 0.00515861 1.00037)
(0 0.00503762 1.00045)
(0 0.00474972 1.00057)
(0 0.00441258 1.00071)
(0 0.00408082 1.00086)
(0 0.00376322 1.00101)
(0 0.00346943 1.00115)
(0 0.00318802 1.00129)
(0 0.00291389 1.00141)
(0 0.00264744 1.00154)
(0 0.00238338 1.00164)
(0 0.00212585 1.00174)
(0 0.00187248 1.00181)
(0 0.00161843 1.00188)
(0 0.00135947 1.00194)
(0 0.00109119 1.00198)
(0 0.000882377 1.00202)
(0 0.000413548 1.00207)
(0 0.00401961 0.946169)
(0 0.0064939 0.9999)
(0 0.00514525 1.00122)
(0 0.00515311 1.00128)
(0 0.00491031 1.00134)
(0 0.00459282 1.00142)
(0 0.00426454 1.00152)
(0 0.00395128 1.00162)
(0 0.00364893 1.00173)
(0 0.00335793 1.00184)
(0 0.00307943 1.00194)
(0 0.00280253 1.00203)
(0 0.00252955 1.00212)
(0 0.00225657 1.00221)
(0 0.0019819 1.00229)
(0 0.00170735 1.00235)
(0 0.00142949 1.00241)
(0 0.00114499 1.00245)
(0 0.000930335 1.00249)
(0 0.000439426 1.00253)
(0 0.00399569 0.936997)
(0 0.00642745 0.999802)
(0 0.00509558 1.00162)
(0 0.00520207 1.00166)
(0 0.00499151 1.00168)
(0 0.00469927 1.00172)
(0 0.00439936 1.00177)
(0 0.00409537 1.00184)
(0 0.00379516 1.00191)
(0 0.00350411 1.00199)
(0 0.00321373 1.00207)
(0 0.00293146 1.00214)
(0 0.00265132 1.0022)
(0 0.00236998 1.00227)
(0 0.00208884 1.00232)
(0 0.00180321 1.00238)
(0 0.00151163 1.00243)
(0 0.00121128 1.00247)
(0 0.000985639 1.00251)
(0 0.000466941 1.00255)
(0 0.00401639 0.927479)
(0 0.00641565 0.999761)
(0 0.00509982 1.00229)
(0 0.00524969 1.00238)
(0 0.00503936 1.0024)
(0 0.00476507 1.00242)
(0 0.00448039 1.00245)
(0 0.00419765 1.00249)
(0 0.00391641 1.00254)
(0 0.00362362 1.0026)
(0 0.00333324 1.00266)
(0 0.00304245 1.00272)
(0 0.00275166 1.00278)
(0 0.00246465 1.00283)
(0 0.00217428 1.00288)
(0 0.00188052 1.00292)
(0 0.00158017 1.00296)
(0 0.00126743 1.00299)
(0 0.001038 1.00302)
(0 0.000495975 1.00306)
(0 0.00404852 0.917442)
(0 0.0064748 0.999243)
(0 0.00515948 1.00247)
(0 0.00531433 1.00258)
(0 0.00510027 1.00261)
(0 0.0048255 1.00262)
(0 0.00455263 1.00264)
(0 0.00428614 1.00267)
(0 0.00401078 1.0027)
(0 0.00373609 1.00274)
(0 0.00345146 1.00278)
(0 0.00315612 1.00282)
(0 0.00285984 1.00287)
(0 0.00255876 1.00292)
(0 0.00225843 1.00296)
(0 0.00195658 1.003)
(0 0.00164609 1.00303)
(0 0.00132276 1.00306)
(0 0.00108807 1.00308)
(0 0.000522354 1.00312)
(0 0.00407232 0.907168)
(0 0.00653666 0.998931)
(0 0.0052374 1.00308)
(0 0.00539876 1.00326)
(0 0.00514657 1.00329)
(0 0.00487241 1.00331)
(0 0.00461513 1.00333)
(0 0.00434695 1.00335)
(0 0.00407945 1.00338)
(0 0.00380413 1.0034)
(0 0.00352309 1.00343)
(0 0.00324439 1.00345)
(0 0.00295283 1.00347)
(0 0.00265217 1.0035)
(0 0.00234352 1.00353)
(0 0.00202692 1.00357)
(0 0.00170483 1.0036)
(0 0.00137045 1.00362)
(0 0.00113533 1.00364)
(0 0.000550363 1.00367)
(0 0.00411295 0.896411)
(0 0.00660889 0.9981)
(0 0.00536592 1.00315)
(0 0.00551266 1.00338)
(0 0.00522714 1.00343)
(0 0.00494018 1.00346)
(0 0.00467414 1.00348)
(0 0.00442597 1.00351)
(0 0.0041663 1.00353)
(0 0.00388723 1.00356)
(0 0.0036037 1.00359)
(0 0.00330756 1.00362)
(0 0.00301319 1.00364)
(0 0.00271903 1.00365)
(0 0.00241532 1.00366)
(0 0.00210205 1.00368)
(0 0.00177382 1.0037)
(0 0.00142454 1.00372)
(0 0.00118076 1.00374)
(0 0.000574695 1.00377)
(0 0.00410539 0.885356)
(0 0.00668335 0.997538)
(0 0.00548512 1.00375)
(0 0.00564505 1.00403)
(0 0.0053385 1.00408)
(0 0.00502318 1.00411)
(0 0.00475416 1.00414)
(0 0.00449526 1.00416)
(0 0.00423243 1.00418)
(0 0.00397328 1.0042)
(0 0.00369215 1.00421)
(0 0.00339853 1.00424)
(0 0.00309365 1.00426)
(0 0.00277705 1.00429)
(0 0.002462 1.00431)
(0 0.00214428 1.00432)
(0 0.00181681 1.00433)
(0 0.001469 1.00434)
(0 0.00123116 1.00434)
(0 0.000604948 1.00437)
(0 0.00409939 0.873881)
(0 0.00667579 0.996451)
(0 0.00554846 1.00387)
(0 0.00574133 1.00421)
(0 0.00541223 1.00426)
(0 0.00510614 1.0043)
(0 0.00483063 1.00433)
(0 0.004559 1.00436)
(0 0.00430064 1.00439)
(0 0.00402773 1.0044)
(0 0.00375426 1.0044)
(0 0.00347647 1.00441)
(0 0.00317957 1.00441)
(0 0.00287188 1.00442)
(0 0.00254766 1.00444)
(0 0.00221066 1.00445)
(0 0.00186537 1.00447)
(0 0.00149869 1.00449)
(0 0.00125874 1.00449)
(0 0.00062439 1.00452)
(0 0.0040981 0.862071)
(0 0.00674103 0.995606)
(0 0.00568353 1.00445)
(0 0.00586362 1.00486)
(0 0.00554041 1.00491)
(0 0.00522452 1.00495)
(0 0.00493119 1.00499)
(0 0.00466061 1.00504)
(0 0.00437517 1.00507)
(0 0.00408944 1.0051)
(0 0.00380511 1.00512)
(0 0.00350699 1.00513)
(0 0.00321264 1.00513)
(0 0.00291117 1.00512)
(0 0.00259854 1.00512)
(0 0.00227528 1.00512)
(0 0.00193203 1.00512)
(0 0.0015576 1.00513)
(0 0.00131182 1.00514)
(0 0.000652996 1.00516)
(0 0.00405665 0.849664)
(0 0.00673468 0.994143)
(0 0.00570965 1.00457)
(0 0.00593346 1.00509)
(0 0.00561587 1.00513)
(0 0.00531297 1.00514)
(0 0.00505386 1.00518)
(0 0.00477654 1.0052)
(0 0.00449036 1.00523)
(0 0.00420426 1.00526)
(0 0.00389801 1.00528)
(0 0.00359474 1.00531)
(0 0.00328283 1.00532)
(0 0.00295942 1.00533)
(0 0.00263492 1.00534)
(0 0.00230088 1.00533)
(0 0.00195593 1.00533)
(0 0.0015825 1.00533)
(0 0.00134672 1.00532)
(0 0.000678088 1.00534)
(0 0.0040524 0.837137)
(0 0.00673001 0.993017)
(0 0.00578614 1.00518)
(0 0.00599739 1.00581)
(0 0.00566395 1.00585)
(0 0.00538117 1.00587)
(0 0.00511231 1.00589)
(0 0.00484284 1.00591)
(0 0.00457548 1.00594)
(0 0.00427929 1.00596)
(0 0.00398169 1.00598)
(0 0.00367531 1.00599)
(0 0.00335501 1.006)
(0 0.00303551 1.00601)
(0 0.00270393 1.00602)
(0 0.00236055 1.00603)
(0 0.00200611 1.00603)
(0 0.00161496 1.00604)
(0 0.00137387 1.00604)
(0 0.000696742 1.00605)
(0 0.00400854 0.823858)
(0 0.00678199 0.991156)
(0 0.00587105 1.0053)
(0 0.00606919 1.00611)
(0 0.0057604 1.00616)
(0 0.0054762 1.00617)
(0 0.00521421 1.00618)
(0 0.00495513 1.0062)
(0 0.00466143 1.0062)
(0 0.00436859 1.00621)
(0 0.00406911 1.00622)
(0 0.00375007 1.00622)
(0 0.00343008 1.00623)
(0 0.00309861 1.00623)
(0 0.00275711 1.00624)
(0 0.00241337 1.00624)
(0 0.00205489 1.00624)
(0 0.00165743 1.00624)
(0 0.00141863 1.00624)
(0 0.0007242 1.00626)
(0 0.00398667 0.810473)
(0 0.00675438 0.989697)
(0 0.00588313 1.00597)
(0 0.0060968 1.00697)
(0 0.00575518 1.00701)
(0 0.00548045 1.00701)
(0 0.00524978 1.00703)
(0 0.00498181 1.00703)
(0 0.00470703 1.00703)
(0 0.00442137 1.00704)
(0 0.00411163 1.00703)
(0 0.00380486 1.00703)
(0 0.00348914 1.00703)
(0 0.00315793 1.00702)
(0 0.0028196 1.00702)
(0 0.0024668 1.00701)
(0 0.00209754 1.00701)
(0 0.00168757 1.00702)
(0 0.00144698 1.00701)
(0 0.000744709 1.00703)
(0 0.0039886 0.796249)
(0 0.00681161 0.98727)
(0 0.00604272 1.00591)
(0 0.00621063 1.00716)
(0 0.00585443 1.00723)
(0 0.00558912 1.00726)
(0 0.00532029 1.00727)
(0 0.00505738 1.00728)
(0 0.00478996 1.00729)
(0 0.00448694 1.00729)
(0 0.00417987 1.00729)
(0 0.00386194 1.00729)
(0 0.00352839 1.00729)
(0 0.00319759 1.00728)
(0 0.00286111 1.00728)
(0 0.00251283 1.00727)
(0 0.00214826 1.00726)
(0 0.00173174 1.00725)
(0 0.00148777 1.00725)
(0 0.000769139 1.00727)
(0 0.00391562 0.781825)
(0 0.00686189 0.98535)
(0 0.00610668 1.00662)
(0 0.0062611 1.00811)
(0 0.00592378 1.00819)
(0 0.00562623 1.00819)
(0 0.00536749 1.00819)
(0 0.00511749 1.00819)
(0 0.00482625 1.00818)
(0 0.0045372 1.00817)
(0 0.00424484 1.00816)
(0 0.00392574 1.00815)
(0 0.00360065 1.00814)
(0 0.00326081 1.00814)
(0 0.00290566 1.00813)
(0 0.00254764 1.00812)
(0 0.00217505 1.00811)
(0 0.00175133 1.00811)
(0 0.00151823 1.00809)
(0 0.000794764 1.0081)
(0 0.00389261 0.766693)
(0 0.00680402 0.982425)
(0 0.00612594 1.00652)
(0 0.00632907 1.00838)
(0 0.00594839 1.00848)
(0 0.00565301 1.00849)
(0 0.00541751 1.00851)
(0 0.00513611 1.0085)
(0 0.00485313 1.00849)
(0 0.00457462 1.00849)
(0 0.00426327 1.00847)
(0 0.00395259 1.00846)
(0 0.00364057 1.00844)
(0 0.00330351 1.00841)
(0 0.00296047 1.0084)
(0 0.00260104 1.00838)
(0 0.00221904 1.00837)
(0 0.00178295 1.00837)
(0 0.00154258 1.00837)
(0 0.000810441 1.00838)
(0 0.00389262 0.751374)
(0 0.00687423 0.979878)
(0 0.00631085 1.00702)
(0 0.0064508 1.00921)
(0 0.0060566 1.00935)
(0 0.0057861 1.00939)
(0 0.00549387 1.0094)
(0 0.00520231 1.00941)
(0 0.00493047 1.00943)
(0 0.00462245 1.00943)
(0 0.00430387 1.00942)
(0 0.00399757 1.00941)
(0 0.00365617 1.00939)
(0 0.00331731 1.00937)
(0 0.00298142 1.00935)
(0 0.00262487 1.00933)
(0 0.0022565 1.00931)
(0 0.00182539 1.00929)
(0 0.00159014 1.00928)
(0 0.000841654 1.00928)
(0 0.00378886 0.734945)
(0 0.00692051 0.976286)
(0 0.00637133 1.00692)
(0 0.00649807 1.00957)
(0 0.00617217 1.00975)
(0 0.00587756 1.00975)
(0 0.00559553 1.00975)
(0 0.00532621 1.00976)
(0 0.00501262 1.00975)
(0 0.00467752 1.00974)
(0 0.00438005 1.00974)
(0 0.00404844 1.00971)
(0 0.00370593 1.00969)
(0 0.00337471 1.00968)
(0 0.00301155 1.00966)
(0 0.00264268 1.00964)
(0 0.00226666 1.00962)
(0 0.00182271 1.0096)
(0 0.00159746 1.00958)
(0 0.000856222 1.00958)
(0 0.0037707 0.718754)
(0 0.00682862 0.973239)
(0 0.00632982 1.00741)
(0 0.0065097 1.01056)
(0 0.00613388 1.01076)
(0 0.00584541 1.01077)
(0 0.00562081 1.01078)
(0 0.00534336 1.01078)
(0 0.00501878 1.01075)
(0 0.00472672 1.01076)
(0 0.00440014 1.01075)
(0 0.00404916 1.01072)
(0 0.0037392 1.01071)
(0 0.00339692 1.01068)
(0 0.00304276 1.01065)
(0 0.00268816 1.01063)
(0 0.00230618 1.01061)
(0 0.00185335 1.01059)
(0 0.00162507 1.01058)
(0 0.000875702 1.01058)
(0 0.00375615 0.701391)
(0 0.0069089 0.968839)
(0 0.00655519 1.00703)
(0 0.00666411 1.01078)
(0 0.0062426 1.01105)
(0 0.00598538 1.01109)
(0 0.00570952 1.0111)
(0 0.00539173 1.01108)
(0 0.00511407 1.01109)
(0 0.00480874 1.01108)
(0 0.00444286 1.01105)
(0 0.00412761 1.01106)
(0 0.00377227 1.01104)
(0 0.00340109 1.01101)
(0 0.00305607 1.011)
(0 0.00269002 1.01097)
(0 0.00231476 1.01094)
(0 0.00187287 1.01091)
(0 0.00165201 1.01089)
(0 0.00089579 1.01089)
(0 0.00359186 0.684037)
(0 0.00692941 0.96516)
(0 0.00658274 1.00765)
(0 0.0066373 1.01202)
(0 0.00630259 1.01234)
(0 0.0060104 1.01233)
(0 0.00569503 1.0123)
(0 0.00542385 1.01228)
(0 0.00514925 1.01227)
(0 0.00478815 1.0122)
(0 0.00450245 1.01218)
(0 0.00418305 1.01214)
(0 0.00380851 1.0121)
(0 0.00347017 1.01208)
(0 0.00309438 1.01205)
(0 0.00270453 1.01203)
(0 0.00232844 1.01201)
(0 0.00187036 1.01199)
(0 0.00165062 1.01197)
(0 0.000907274 1.01196)
(0 0.00354591 0.665882)
(0 0.00677107 0.960159)
(0 0.00644402 1.0072)
(0 0.00661475 1.01244)
(0 0.00626041 1.01282)
(0 0.00592208 1.01282)
(0 0.00566722 1.01279)
(0 0.0054204 1.01279)
(0 0.00505308 1.01273)
(0 0.00475373 1.0127)
(0 0.00447236 1.01266)
(0 0.0041025 1.01258)
(0 0.00380299 1.01253)
(0 0.00347156 1.01248)
(0 0.00309804 1.01241)
(0 0.00274231 1.01238)
(0 0.00236886 1.01234)
(0 0.00189922 1.01232)
(0 0.00167349 1.0123)
(0 0.000921228 1.0123)
(0 0.00361189 0.647803)
(0 0.00681204 0.95554)
(0 0.00665679 1.00734)
(0 0.00678645 1.01337)
(0 0.00628777 1.01386)
(0 0.0059914 1.01389)
(0 0.00575085 1.01392)
(0 0.00538738 1.01389)
(0 0.00504096 1.01386)
(0 0.00477997 1.01387)
(0 0.00438046 1.01381)
(0 0.00405815 1.01378)
(0 0.00374515 1.01374)
(0 0.00337219 1.01367)
(0 0.00303938 1.01361)
(0 0.00270067 1.01355)
(0 0.00234366 1.01349)
(0 0.00189585 1.01344)
(0 0.00169417 1.0134)
(0 0.000947586 1.01339)
(0 0.00342131 0.628039)
(0 0.00691992 0.949508)
(0 0.00688443 1.00688)
(0 0.0068272 1.01394)
(0 0.00640929 1.01453)
(0 0.00614663 1.01454)
(0 0.0058039 1.01448)
(0 0.00540986 1.0144)
(0 0.00516934 1.01439)
(0 0.00477229 1.0143)
(0 0.0044064 1.01425)
(0 0.00410716 1.01421)
(0 0.00371141 1.01414)
(0 0.00335172 1.01408)
(0 0.00299888 1.01403)
(0 0.00263054 1.01396)
(0 0.00227724 1.01391)
(0 0.00182935 1.01385)
(0 0.00164458 1.0138)
(0 0.000933139 1.01378)
(0 0.00312845 0.609247)
(0 0.00665931 0.944428)
(0 0.00646158 1.00722)
(0 0.00646991 1.01538)
(0 0.00616894 1.01607)
(0 0.00585518 1.01605)
(0 0.0054717 1.01591)
(0 0.00526438 1.01586)
(0 0.00493977 1.01575)
(0 0.0045528 1.01562)
(0 0.0043069 1.01556)
(0 0.0039562 1.01544)
(0 0.00361618 1.01535)
(0 0.00329423 1.01527)
(0 0.0029311 1.01518)
(0 0.00259206 1.01511)
(0 0.00225162 1.01505)
(0 0.00180047 1.01499)
(0 0.00162803 1.01495)
(0 0.00093941 1.01492)
(0 0.00311063 0.590054)
(0 0.00634841 0.937829)
(0 0.00618859 1.00624)
(0 0.00636604 1.01566)
(0 0.0059697 1.01654)
(0 0.00555743 1.0165)
(0 0.00533682 1.01645)
(0 0.00508568 1.01638)
(0 0.00465407 1.01623)
(0 0.00440689 1.01616)
(0 0.00409533 1.01604)
(0 0.00375073 1.01591)
(0 0.0034656 1.01581)
(0 0.00312391 1.01568)
(0 0.00280329 1.01558)
(0 0.00249788 1.01548)
(0 0.00217013 1.01539)
(0 0.00174511 1.01533)
(0 0.00158922 1.01527)
(0 0.000922556 1.01524)
(0 0.00310183 0.571421)
(0 0.00624277 0.931959)
(0 0.00631915 1.0062)
(0 0.00631343 1.01683)
(0 0.00569187 1.01785)
(0 0.00538361 1.01785)
(0 0.00518379 1.01782)
(0 0.00473289 1.01765)
(0 0.00442854 1.01756)
(0 0.00416512 1.01745)
(0 0.00379908 1.01729)
(0 0.00353009 1.01718)
(0 0.00321697 1.01704)
(0 0.00290224 1.01691)
(0 0.00262485 1.01679)
(0 0.00232216 1.01666)
(0 0.00203554 1.01655)
(0 0.00164884 1.01646)
(0 0.00152626 1.01639)
(0 0.000915324 1.01633)
(0 0.00248598 0.55124)
(0 0.0059923 0.925123)
(0 0.00615024 1.0058)
(0 0.00584174 1.01786)
(0 0.00536175 1.01892)
(0 0.00516827 1.01887)
(0 0.00477842 1.01862)
(0 0.00437691 1.0184)
(0 0.00415781 1.01822)
(0 0.00378297 1.01798)
(0 0.00350352 1.0178)
(0 0.0032261 1.01761)
(0 0.0029133 1.01742)
(0 0.00264952 1.01726)
(0 0.00236963 1.0171)
(0 0.00208823 1.01696)
(0 0.00184002 1.01683)
(0 0.00148332 1.01673)
(0 0.00139213 1.01664)
(0 0.000851298 1.01659)
(0 0.00131011 0.535149)
(0 0.00481642 0.919895)
(0 0.00436938 1.00637)
(0 0.00430926 1.0197)
(0 0.00409898 1.02093)
(0 0.00394056 1.0207)
(0 0.00358658 1.02032)
(0 0.00349112 1.02003)
(0 0.00324184 1.0197)
(0 0.00302176 1.01941)
(0 0.00285712 1.01914)
(0 0.00262695 1.01888)
(0 0.00243237 1.01864)
(0 0.00223634 1.01843)
(0 0.00201611 1.01823)
(0 0.00181538 1.01805)
(0 0.00163506 1.0179)
(0 0.0013231 1.01778)
(0 0.00129807 1.01768)
(0 0.000840659 1.01761)
(0 0.000194889 0.523229)
(0 0.00309704 0.915778)
(0 0.002365 1.00561)
(0 0.00272471 1.01976)
(0 0.00269587 1.02107)
(0 0.0024659 1.02077)
(0 0.00248597 1.02046)
(0 0.00239629 1.02011)
(0 0.00224966 1.01977)
(0 0.00219077 1.01948)
(0 0.0020673 1.01918)
(0 0.00194175 1.01891)
(0 0.00183538 1.01867)
(0 0.00170029 1.01844)
(0 0.00155869 1.01823)
(0 0.00143067 1.01805)
(0 0.00131047 1.01788)
(0 0.00106512 1.01775)
(0 0.00109067 1.01764)
(0 0.000738065 1.01756)
(0 -0.000314995 0.519175)
(0 0.00124851 0.913086)
(0 0.000404124 1.00488)
(0 0.00115814 1.01984)
(0 0.000946073 1.02126)
(0 0.00110421 1.02116)
(0 0.00122703 1.0209)
(0 0.00120647 1.0206)
(0 0.00127176 1.02035)
(0 0.00129698 1.02009)
(0 0.00128076 1.01984)
(0 0.00127771 1.01961)
(0 0.00125421 1.01938)
(0 0.00121295 1.01917)
(0 0.00115618 1.01898)
(0 0.00109354 1.0188)
(0 0.00105944 1.01864)
(0 0.000869787 1.01852)
(0 0.00095129 1.01841)
(0 0.000705697 1.01831)
(0 -0.000392297 0.517699)
(0 0.000273519 0.913118)
(0 -0.00023358 1.00393)
(0 0.000411459 1.01845)
(0 0.00015916 1.01994)
(0 0.000482461 1.01996)
(0 0.000477431 1.01977)
(0 0.000562695 1.0196)
(0 0.0006454 1.01943)
(0 0.000676204 1.01925)
(0 0.000715136 1.01908)
(0 0.000742046 1.01892)
(0 0.000752127 1.01875)
(0 0.000757643 1.0186)
(0 0.000739523 1.01846)
(0 0.000718127 1.01832)
(0 0.000730532 1.0182)
(0 0.000601831 1.0181)
(0 0.000692306 1.01801)
(0 0.000555304 1.01793)
(0 -0.000344641 0.519486)
(0 -0.000272107 0.912308)
(0 -0.000891998 1.00345)
(0 -0.000296527 1.01827)
(0 -0.000474278 1.01992)
(0 -0.000111627 1.02001)
(0 -8.03328e-05 1.01988)
(0 8.81649e-05 1.01978)
(0 0.000178876 1.01965)
(0 0.000265632 1.01952)
(0 0.000359348 1.01939)
(0 0.000416871 1.01926)
(0 0.000473541 1.01913)
(0 0.000519414 1.019)
(0 0.000542043 1.01888)
(0 0.000548927 1.01877)
(0 0.000609718 1.01866)
(0 0.000505574 1.01857)
(0 0.000618034 1.01849)
(0 0.000543007 1.01841)
(0 -1.04446e-05 0.520437)
(0 -0.000174877 0.915907)
(0 -0.000838199 1.00367)
(0 -0.000371333 1.01701)
(0 -0.000618846 1.01847)
(0 -0.000288281 1.0186)
(0 -0.000360007 1.01855)
(0 -0.000186096 1.01852)
(0 -0.000159486 1.01846)
(0 -6.78084e-05 1.01841)
(0 -9.32913e-06 1.01834)
(0 5.09748e-05 1.01828)
(0 0.000104851 1.01821)
(0 0.000154297 1.01813)
(0 0.000201322 1.01806)
(0 0.00022064 1.01799)
(0 0.000298377 1.01792)
(0 0.000261754 1.01786)
(0 0.000349148 1.01781)
(0 0.000361053 1.01774)
(0 4.83239e-05 0.995486)
(0 5.27465e-05 0.999671)
(0 1.86089e-05 1.00003)
(0 1.87578e-05 1.00005)
(0 1.52753e-05 1.00005)
(0 1.51964e-05 1.00005)
(0 1.67147e-05 1.00004)
(0 1.84327e-05 1.00004)
(0 1.9957e-05 1.00004)
(0 2.11944e-05 1.00004)
(0 2.28554e-05 1.00004)
(0 2.45172e-05 1.00004)
(0 2.52123e-05 1.00004)
(0 2.44742e-05 1.00004)
(0 2.2507e-05 1.00004)
(0 2.00661e-05 1.00004)
(0 1.75299e-05 1.00004)
(0 1.47013e-05 1.00004)
(0 1.13008e-05 1.00004)
(0 4.75903e-06 1.00004)
(0 -0.000107253 1.00442)
(0 -0.00012162 1.00027)
(0 -7.97626e-06 0.999965)
(0 2.5047e-05 0.999945)
(0 3.04831e-05 0.999941)
(0 3.61585e-05 0.99994)
(0 4.20394e-05 0.99994)
(0 4.94106e-05 0.999942)
(0 5.69328e-05 0.999943)
(0 6.32034e-05 0.999945)
(0 6.67458e-05 0.999948)
(0 6.81135e-05 0.99995)
(0 6.89812e-05 0.999953)
(0 6.91824e-05 0.999954)
(0 6.75489e-05 0.999954)
(0 6.27958e-05 0.999955)
(0 5.49388e-05 0.999956)
(0 4.49136e-05 0.999957)
(0 3.30849e-05 0.999958)
(0 1.3335e-05 0.99996)
(0 3.7642e-05 0.995646)
(0 4.41479e-05 0.99971)
(0 2.55624e-05 1.00003)
(0 3.81652e-05 1.00003)
(0 5.11685e-05 1.00003)
(0 6.50093e-05 1.00003)
(0 7.7772e-05 1.00003)
(0 8.87592e-05 1.00004)
(0 9.88103e-05 1.00004)
(0 0.000109193 1.00005)
(0 0.000117838 1.00005)
(0 0.000122581 1.00006)
(0 0.00012165 1.00006)
(0 0.000116557 1.00007)
(0 0.000109415 1.00008)
(0 0.000100714 1.00008)
(0 8.97613e-05 1.00008)
(0 7.57449e-05 1.00009)
(0 5.81846e-05 1.00009)
(0 2.43267e-05 1.00009)
(0 -6.56577e-05 1.00412)
(0 -6.26828e-05 1.00015)
(0 2.23138e-05 0.999906)
(0 4.81761e-05 0.999888)
(0 6.87214e-05 0.999885)
(0 8.96155e-05 0.999889)
(0 0.000110252 0.999895)
(0 0.000129135 0.999903)
(0 0.000145249 0.999915)
(0 0.000155991 0.999927)
(0 0.000164108 0.99994)
(0 0.0001706 0.999949)
(0 0.000174099 0.999956)
(0 0.000171794 0.999963)
(0 0.00016182 0.999971)
(0 0.000145617 0.99998)
(0 0.00012552 0.999988)
(0 0.000103289 0.999994)
(0 7.92819e-05 0.999998)
(0 3.3504e-05 1)
(0 6.86524e-05 0.99575)
(0 0.000100552 0.999669)
(0 5.42835e-05 0.999954)
(0 6.28367e-05 0.999964)
(0 9.58865e-05 0.999967)
(0 0.000127757 0.999976)
(0 0.00015257 0.999988)
(0 0.000177413 1.00001)
(0 0.000199692 1.00002)
(0 0.000217332 1.00004)
(0 0.00022677 1.00006)
(0 0.000227666 1.00008)
(0 0.00022401 1.0001)
(0 0.00021757 1.00011)
(0 0.00020771 1.00012)
(0 0.000191831 1.00013)
(0 0.00016868 1.00014)
(0 0.000139514 1.00015)
(0 0.000106581 1.00015)
(0 4.50011e-05 1.00016)
(0 -2.08398e-05 1.00378)
(0 1.1394e-05 0.999969)
(0 6.9915e-05 0.999771)
(0 8.70242e-05 0.999772)
(0 0.000125038 0.999784)
(0 0.000165702 0.999798)
(0 0.000204214 0.999819)
(0 0.000234345 0.999843)
(0 0.000257531 0.999871)
(0 0.000277027 0.999898)
(0 0.000291339 0.999922)
(0 0.000298201 0.999945)
(0 0.000293764 0.999969)
(0 0.000279039 0.999994)
(0 0.000257619 1.00002)
(0 0.000232043 1.00003)
(0 0.000202769 1.00005)
(0 0.000169421 1.00006)
(0 0.000132466 1.00006)
(0 5.69529e-05 1.00007)
(0 0.000100693 0.995814)
(0 0.000167123 0.999575)
(0 0.000120817 0.99982)
(0 0.000135221 0.999846)
(0 0.000175297 0.999867)
(0 0.000220318 0.999896)
(0 0.000263713 0.999926)
(0 0.00030273 0.999959)
(0 0.00033266 0.999996)
(0 0.000349586 1.00003)
(0 0.000358039 1.00007)
(0 0.000360281 1.0001)
(0 0.0003567 1.00013)
(0 0.000344962 1.00015)
(0 0.000322309 1.00018)
(0 0.000289359 1.0002)
(0 0.000248882 1.00022)
(0 0.000204155 1.00023)
(0 0.000158353 1.00025)
(0 6.83521e-05 1.00026)
(0 4.83958e-08 1.00343)
(0 5.80446e-05 0.999754)
(0 0.000136198 0.999597)
(0 0.000176393 0.999613)
(0 0.000232737 0.999648)
(0 0.000288189 0.99969)
(0 0.000336213 0.999736)
(0 0.000377242 0.999785)
(0 0.000408881 0.999832)
(0 0.0004317 0.999879)
(0 0.000441634 0.999925)
(0 0.000438145 0.999971)
(0 0.000424189 1.00001)
(0 0.000402198 1.00005)
(0 0.000373707 1.00008)
(0 0.000337769 1.0001)
(0 0.000293641 1.00012)
(0 0.000242895 1.00014)
(0 0.000189226 1.00015)
(0 8.1798e-05 1.00017)
(0 0.000118216 0.995823)
(0 0.000213715 0.99943)
(0 0.000201621 0.999635)
(0 0.000250708 0.999674)
(0 0.000316815 0.999723)
(0 0.000376035 0.99978)
(0 0.000429514 0.999841)
(0 0.000471903 0.999902)
(0 0.000502427 0.999964)
(0 0.000520347 1.00002)
(0 0.000527319 1.00008)
(0 0.000523683 1.00013)
(0 0.000507528 1.00018)
(0 0.000479437 1.00022)
(0 0.00044059 1.00026)
(0 0.000392826 1.00029)
(0 0.00033819 1.00032)
(0 0.00027834 1.00034)
(0 0.000218157 1.00036)
(0 9.54295e-05 1.00037)
(0 1.47448e-05 1.00305)
(0 0.000100419 0.999517)
(0 0.000223011 0.9994)
(0 0.000317347 0.999435)
(0 0.000405699 0.999497)
(0 0.000475842 0.999573)
(0 0.000529901 0.99965)
(0 0.000572977 0.999727)
(0 0.000602235 0.999802)
(0 0.000617016 0.999874)
(0 0.000618591 0.999942)
(0 0.000607043 1)
(0 0.000584131 1.00006)
(0 0.000550003 1.00011)
(0 0.000505219 1.00015)
(0 0.000450988 1.00019)
(0 0.00038831 1.00022)
(0 0.000319346 1.00025)
(0 0.000250003 1.00027)
(0 0.000109243 1.00029)
(0 0.00012839 0.995775)
(0 0.00025297 0.99924)
(0 0.000301826 0.999426)
(0 0.00041609 0.99949)
(0 0.000524363 0.999573)
(0 0.000598142 0.999665)
(0 0.000653074 0.999761)
(0 0.000693012 0.999854)
(0 0.000717537 0.999943)
(0 0.000727244 1.00003)
(0 0.000721719 1.00011)
(0 0.000703455 1.00018)
(0 0.000672617 1.00024)
(0 0.00062953 1.0003)
(0 0.00057517 1.00035)
(0 0.000510358 1.00039)
(0 0.000437173 1.00043)
(0 0.000358037 1.00046)
(0 0.000281397 1.00048)
(0 0.000124173 1.00051)
(0 3.91126e-05 1.0026)
(0 0.000172392 0.999229)
(0 0.000359939 0.999178)
(0 0.000521811 0.999254)
(0 0.000647912 0.999351)
(0 0.000731474 0.99946)
(0 0.000785057 0.999573)
(0 0.000818405 0.999683)
(0 0.000836861 0.999788)
(0 0.000839532 0.999884)
(0 0.000827554 0.999973)
(0 0.000800115 1.00005)
(0 0.00075892 1.00013)
(0 0.000706998 1.00019)
(0 0.000644862 1.00025)
(0 0.000572626 1.00029)
(0 0.000490827 1.00033)
(0 0.000401603 1.00037)
(0 0.000314988 1.0004)
(0 0.000138783 1.00042)
(0 0.000154207 0.995628)
(0 0.000347682 0.998979)
(0 0.000485979 0.999195)
(0 0.000662256 0.999317)
(0 0.000797166 0.999442)
(0 0.000882409 0.999569)
(0 0.00093531 0.999696)
(0 0.00096467 0.999821)
(0 0.000971842 0.99994)
(0 0.000963272 1.00005)
(0 0.00094095 1.00015)
(0 0.000905023 1.00024)
(0 0.000855743 1.00032)
(0 0.000792669 1.00039)
(0 0.000717749 1.00046)
(0 0.000633183 1.00051)
(0 0.000540676 1.00056)
(0 0.000441996 1.00059)
(0 0.000348691 1.00062)
(0 0.000154979 1.00065)
(0 9.80138e-05 1.00206)
(0 0.000345102 0.998881)
(0 0.000624714 0.998941)
(0 0.000825825 0.999087)
(0 0.000959626 0.999235)
(0 0.00104012 0.999382)
(0 0.00108758 0.999527)
(0 0.00110928 0.999665)
(0 0.00111123 0.999797)
(0 0.00109339 0.999918)
(0 0.00105767 1.00003)
(0 0.00100803 1.00013)
(0 0.000946711 1.00022)
(0 0.000875549 1.0003)
(0 0.000793683 1.00036)
(0 0.00070027 1.00042)
(0 0.00059663 1.00047)
(0 0.000485523 1.00051)
(0 0.000381559 1.00054)
(0 0.000169447 1.00057)
(0 0.000244544 0.995334)
(0 0.000604557 0.998648)
(0 0.000838602 0.99895)
(0 0.00102776 0.999153)
(0 0.00114785 0.999337)
(0 0.0012201 0.999507)
(0 0.00125785 0.999669)
(0 0.00126938 0.999823)
(0 0.0012569 0.999967)
(0 0.00122639 1.0001)
(0 0.0011819 1.00022)
(0 0.00112234 1.00032)
(0 0.001049 1.00042)
(0 0.000962793 1.00051)
(0 0.000865961 1.00058)
(0 0.000760845 1.00065)
(0 0.000647875 1.0007)
(0 0.000528096 1.00074)
(0 0.00041744 1.00077)
(0 0.00018661 1.00081)
(0 0.00026282 1.00139)
(0 0.00073726 0.998484)
(0 0.00108334 0.998694)
(0 0.00125782 0.998926)
(0 0.00135514 0.99914)
(0 0.00140594 0.999336)
(0 0.00143062 0.99952)
(0 0.00143005 0.999689)
(0 0.00140661 0.999844)
(0 0.00136313 0.999987)
(0 0.0013019 1.00012)
(0 0.00122869 1.00023)
(0 0.00114538 1.00033)
(0 0.00105182 1.00042)
(0 0.000947143 1.0005)
(0 0.000830541 1.00056)
(0 0.000703693 1.00062)
(0 0.000569843 1.00067)
(0 0.000448985 1.0007)
(0 0.000200966 1.00074)
(0 0.000500769 0.994869)
(0 0.00115546 0.99828)
(0 0.00139946 0.998701)
(0 0.0015251 0.998993)
(0 0.00158832 0.999242)
(0 0.00161938 0.999468)
(0 0.00162275 0.999672)
(0 0.00160223 0.999857)
(0 0.0015616 1.00003)
(0 0.00150352 1.00018)
(0 0.00143167 1.00031)
(0 0.00134514 1.00044)
(0 0.00124564 1.00055)
(0 0.00113601 1.00064)
(0 0.00101769 1.00073)
(0 0.00089159 1.0008)
(0 0.00075696 1.00085)
(0 0.000614607 1.0009)
(0 0.000486606 1.00094)
(0 0.000218894 1.00097)
(0 0.000655305 1.00057)
(0 0.00148538 0.998062)
(0 0.00174697 0.99844)
(0 0.00181477 0.998762)
(0 0.00183986 0.999049)
(0 0.00183687 0.999306)
(0 0.00181603 0.999535)
(0 0.00177692 0.999738)
(0 0.00171829 0.999918)
(0 0.00164383 1.00008)
(0 0.00155495 1.00023)
(0 0.0014557 1.00035)
(0 0.00134753 1.00047)
(0 0.00122879 1.00057)
(0 0.00109923 1.00065)
(0 0.000958951 1.00073)
(0 0.000809474 1.00079)
(0 0.000653552 1.00084)
(0 0.000517197 1.00088)
(0 0.000233524 1.00092)
(0 0.00104926 0.99423)
(0 0.00212395 0.997895)
(0 0.00215974 0.998441)
(0 0.00214463 0.998824)
(0 0.00212189 0.999147)
(0 0.0020849 0.999434)
(0 0.00203093 0.999688)
(0 0.00196108 0.999911)
(0 0.0018807 1.00011)
(0 0.00178875 1.00028)
(0 0.00168572 1.00043)
(0 0.0015709 1.00057)
(0 0.00144486 1.00069)
(0 0.00131103 1.00079)
(0 0.00117012 1.00088)
(0 0.00102158 1.00096)
(0 0.000864313 1.00102)
(0 0.000698821 1.00107)
(0 0.000554492 1.00111)
(0 0.000251268 1.00116)
(0 0.0013955 0.99958)
(0 0.00269426 0.997628)
(0 0.00259352 0.998178)
(0 0.00248683 0.998596)
(0 0.00241268 0.998959)
(0 0.00233417 0.999276)
(0 0.00224729 0.999554)
(0 0.00215165 0.999798)
(0 0.00204486 1.00001)
(0 0.00193085 1.0002)
(0 0.00181074 1.00036)
(0 0.00168383 1.0005)
(0 0.0015493 1.00062)
(0 0.00140429 1.00073)
(0 0.00124911 1.00082)
(0 0.00108518 1.0009)
(0 0.00091352 1.00097)
(0 0.000735735 1.00103)
(0 0.00058501 1.00107)
(0 0.000266512 1.00111)
)
;

boundaryField
{
    movingWall
    {
        type            zeroGradient;
    }
    leftSide
    {
        type            fixedValue;
        value           uniform (0 0 1);
    }
    rightSide
    {
        type            zeroGradient;
    }
    bottomWall
    {
        type            noSlip;
    }
    bottomWall2
    {
        type            zeroGradient;
    }
    frontAndBack
    {
        type            empty;
    }
}


// ************************************************************************* //
